
     Program PROJWFC v.7.4.1 starts on 31Oct2025 at 19:32:26 

     This program is part of the open-source Quantum ESPRESSO suite
     for quantum simulation of materials; please cite
         "P. Giannozzi et al., J. Phys.:Condens. Matter 21 395502 (2009);
         "P. Giannozzi et al., J. Phys.:Condens. Matter 29 465901 (2017);
         "P. Giannozzi et al., J. Chem. Phys. 152 154105 (2020);
          URL http://www.quantum-espresso.org", 
     in publications or presentations arising from this work. More details at
     http://www.quantum-espresso.org/quote

     Parallel version (MPI), running on     1 processors

     MPI processes distributed on     1 nodes
     0 MiB available memory on the printing compute node when the environment starts


     Reading xml data from directory:

     ./tmp/silicon.save/

     IMPORTANT: XC functional enforced from input :
     Exchange-correlation= PBE
                           (   1   4   3   4   0   0   0)
     Any further DFT definition will be discarded
     Please, verify this is what you really want


     G-vector sticks info
     --------------------
     sticks:   dense  smooth     PW     G-vecs:    dense   smooth      PW
     Sum         433     433    151                 5961     5961    1139

     Using Slab Decomposition


     Check: negative core charge=   -0.000004

     Gaussian broadening (read from input): ngauss,degauss=   0    0.020000


     Calling projwave .... 
     Subspace diagonalization in iterative solution of the eigenvalue problem:
     a serial algorithm will be used


  Problem Sizes 
  natomwfc =            8
  nbnd     =           16
  nkstot   =           72
  npwx     =          760
  nkb      =           36


     Atomic states used for projection
     (read from pseudopotential files):

     state #   1: atom   1 (Si ), wfc  1 (l=0 m= 1)
     state #   2: atom   1 (Si ), wfc  2 (l=1 m= 1)
     state #   3: atom   1 (Si ), wfc  2 (l=1 m= 2)
     state #   4: atom   1 (Si ), wfc  2 (l=1 m= 3)
     state #   5: atom   2 (Si ), wfc  1 (l=0 m= 1)
     state #   6: atom   2 (Si ), wfc  2 (l=1 m= 1)
     state #   7: atom   2 (Si ), wfc  2 (l=1 m= 2)
     state #   8: atom   2 (Si ), wfc  2 (l=1 m= 3)

 k =   0.0000000000  0.0000000000  0.0000000000
==== e(   1) =    -5.74891 eV ==== 
     psi = 0.498*[#   1]+0.498*[#   5]
    |psi|^2 = 0.996
==== e(   2) =     6.21980 eV ==== 
     psi = 0.160*[#   2]+0.160*[#   3]+0.160*[#   4]+0.160*[#   6]+0.160*[#   7]
          +0.160*[#   8]
    |psi|^2 = 0.961
==== e(   3) =     6.21980 eV ==== 
     psi = 0.160*[#   2]+0.160*[#   3]+0.160*[#   4]+0.160*[#   6]+0.160*[#   7]
          +0.160*[#   8]
    |psi|^2 = 0.961
==== e(   4) =     6.21980 eV ==== 
     psi = 0.160*[#   2]+0.160*[#   3]+0.160*[#   4]+0.160*[#   6]+0.160*[#   7]
          +0.160*[#   8]
    |psi|^2 = 0.961
==== e(   5) =     8.77964 eV ==== 
     psi = 0.161*[#   2]+0.161*[#   3]+0.161*[#   4]+0.161*[#   6]+0.161*[#   7]
          +0.161*[#   8]
    |psi|^2 = 0.965
==== e(   6) =     8.77964 eV ==== 
     psi = 0.161*[#   2]+0.161*[#   3]+0.161*[#   4]+0.161*[#   6]+0.161*[#   7]
          +0.161*[#   8]
    |psi|^2 = 0.965
==== e(   7) =     8.77964 eV ==== 
     psi = 0.161*[#   2]+0.161*[#   3]+0.161*[#   4]+0.161*[#   6]+0.161*[#   7]
          +0.161*[#   8]
    |psi|^2 = 0.965
==== e(   8) =     9.58880 eV ==== 
     psi = 0.494*[#   1]+0.494*[#   5]
    |psi|^2 = 0.988
==== e(   9) =    13.94754 eV ==== 

    |psi|^2 = 0.000
==== e(  10) =    13.94754 eV ==== 

    |psi|^2 = 0.000
==== e(  11) =    14.18743 eV ==== 
     psi = 0.002*[#   1]+0.002*[#   5]
    |psi|^2 = 0.004
==== e(  12) =    17.47865 eV ==== 
     psi = 0.004*[#   2]+0.004*[#   3]+0.004*[#   4]+0.004*[#   6]+0.004*[#   7]
          +0.004*[#   8]
    |psi|^2 = 0.024
==== e(  13) =    17.47865 eV ==== 
     psi = 0.004*[#   2]+0.004*[#   3]+0.004*[#   4]+0.004*[#   6]+0.004*[#   7]
          +0.004*[#   8]
    |psi|^2 = 0.024
==== e(  14) =    17.47865 eV ==== 
     psi = 0.004*[#   2]+0.004*[#   3]+0.004*[#   4]+0.004*[#   6]+0.004*[#   7]
          +0.004*[#   8]
    |psi|^2 = 0.024
==== e(  15) =    21.63388 eV ==== 
     psi = 0.006*[#   1]+0.006*[#   5]
    |psi|^2 = 0.012
==== e(  16) =    29.24932 eV ==== 
     psi = 0.002*[#   2]+0.002*[#   3]+0.002*[#   4]+0.002*[#   6]+0.002*[#   7]
          +0.002*[#   8]
    |psi|^2 = 0.014

 k =  -0.0833333333  0.0833333333 -0.0833333333
==== e(   1) =    -5.65785 eV ==== 
     psi = 0.474*[#   1]+0.474*[#   5]+0.008*[#   2]+0.008*[#   3]+0.008*[#   4]
          +0.008*[#   6]+0.008*[#   7]+0.008*[#   8]
    |psi|^2 = 0.996
==== e(   2) =     5.35995 eV ==== 
     psi = 0.143*[#   2]+0.143*[#   3]+0.143*[#   4]+0.143*[#   6]+0.143*[#   7]
          +0.143*[#   8]+0.058*[#   1]+0.058*[#   5]
    |psi|^2 = 0.972
==== e(   3) =     6.07555 eV ==== 
     psi = 0.161*[#   2]+0.161*[#   3]+0.161*[#   4]+0.161*[#   6]+0.161*[#   7]
          +0.161*[#   8]
    |psi|^2 = 0.966
==== e(   4) =     6.07555 eV ==== 
     psi = 0.161*[#   2]+0.161*[#   3]+0.161*[#   4]+0.161*[#   6]+0.161*[#   7]
          +0.161*[#   8]
    |psi|^2 = 0.966
==== e(   5) =     8.82616 eV ==== 
     psi = 0.128*[#   2]+0.128*[#   3]+0.128*[#   4]+0.128*[#   6]+0.128*[#   7]
          +0.128*[#   8]+0.097*[#   1]+0.097*[#   5]
    |psi|^2 = 0.960
==== e(   6) =     8.99160 eV ==== 
     psi = 0.160*[#   2]+0.160*[#   3]+0.160*[#   4]+0.160*[#   6]+0.160*[#   7]
          +0.160*[#   8]
    |psi|^2 = 0.959
==== e(   7) =     8.99160 eV ==== 
     psi = 0.160*[#   2]+0.160*[#   3]+0.160*[#   4]+0.160*[#   6]+0.160*[#   7]
          +0.160*[#   8]
    |psi|^2 = 0.959
==== e(   8) =    10.25129 eV ==== 
     psi = 0.362*[#   1]+0.362*[#   5]+0.042*[#   2]+0.042*[#   3]+0.042*[#   4]
          +0.042*[#   6]+0.042*[#   7]+0.042*[#   8]
    |psi|^2 = 0.977
==== e(   9) =    13.67843 eV ==== 

    |psi|^2 = 0.002
==== e(  10) =    13.67843 eV ==== 

    |psi|^2 = 0.002
==== e(  11) =    14.57202 eV ==== 
     psi = 0.002*[#   1]+0.002*[#   5]
    |psi|^2 = 0.005
==== e(  12) =    17.15741 eV ==== 
     psi = 0.003*[#   2]+0.003*[#   3]+0.003*[#   4]+0.003*[#   6]+0.003*[#   7]
          +0.003*[#   8]+0.001*[#   1]+0.001*[#   5]
    |psi|^2 = 0.021
==== e(  13) =    18.04495 eV ==== 
     psi = 0.003*[#   2]+0.003*[#   3]+0.003*[#   4]+0.003*[#   6]+0.003*[#   7]
          +0.003*[#   8]
    |psi|^2 = 0.021
==== e(  14) =    18.04495 eV ==== 
     psi = 0.003*[#   2]+0.003*[#   3]+0.003*[#   4]+0.003*[#   6]+0.003*[#   7]
          +0.003*[#   8]
    |psi|^2 = 0.021
==== e(  15) =    22.23587 eV ==== 
     psi = 0.005*[#   1]+0.005*[#   5]
    |psi|^2 = 0.013
==== e(  16) =    28.29611 eV ==== 
     psi = 0.003*[#   2]+0.003*[#   3]+0.003*[#   4]+0.003*[#   6]+0.003*[#   7]
          +0.003*[#   8]
    |psi|^2 = 0.017

 k =  -0.1666666667  0.1666666667 -0.1666666667
==== e(   1) =    -5.38755 eV ==== 
     psi = 0.425*[#   1]+0.425*[#   5]+0.024*[#   2]+0.024*[#   3]+0.024*[#   4]
          +0.024*[#   6]+0.024*[#   7]+0.024*[#   8]
    |psi|^2 = 0.996
==== e(   2) =     3.83609 eV ==== 
     psi = 0.126*[#   2]+0.126*[#   3]+0.126*[#   4]+0.126*[#   6]+0.126*[#   7]
          +0.126*[#   8]+0.112*[#   1]+0.112*[#   5]
    |psi|^2 = 0.981
==== e(   3) =     5.76809 eV ==== 
     psi = 0.162*[#   2]+0.162*[#   3]+0.162*[#   4]+0.162*[#   6]+0.162*[#   7]
          +0.162*[#   8]
    |psi|^2 = 0.974
==== e(   4) =     5.76809 eV ==== 
     psi = 0.162*[#   2]+0.162*[#   3]+0.162*[#   4]+0.162*[#   6]+0.162*[#   7]
          +0.162*[#   8]
    |psi|^2 = 0.974
==== e(   5) =     8.57083 eV ==== 
     psi = 0.202*[#   1]+0.202*[#   5]+0.092*[#   2]+0.092*[#   3]+0.092*[#   4]
          +0.092*[#   6]+0.092*[#   7]+0.092*[#   8]
    |psi|^2 = 0.954
==== e(   6) =     9.42842 eV ==== 
     psi = 0.157*[#   2]+0.157*[#   3]+0.157*[#   4]+0.157*[#   6]+0.157*[#   7]
          +0.157*[#   8]
    |psi|^2 = 0.941
==== e(   7) =     9.42842 eV ==== 
     psi = 0.157*[#   2]+0.157*[#   3]+0.157*[#   4]+0.157*[#   6]+0.157*[#   7]
          +0.157*[#   8]
    |psi|^2 = 0.941
==== e(   8) =    11.67683 eV ==== 
     psi = 0.245*[#   1]+0.245*[#   5]+0.077*[#   2]+0.077*[#   3]+0.077*[#   4]
          +0.077*[#   6]+0.077*[#   7]+0.077*[#   8]
    |psi|^2 = 0.950
==== e(   9) =    13.31205 eV ==== 
     psi = 0.002*[#   2]+0.002*[#   3]+0.002*[#   4]+0.002*[#   6]+0.002*[#   7]
          +0.002*[#   8]
    |psi|^2 = 0.009
==== e(  10) =    13.31205 eV ==== 
     psi = 0.002*[#   2]+0.002*[#   3]+0.002*[#   4]+0.002*[#   6]+0.002*[#   7]
          +0.002*[#   8]
    |psi|^2 = 0.009
==== e(  11) =    15.31613 eV ==== 
     psi = 0.002*[#   1]+0.002*[#   5]+0.002*[#   2]+0.002*[#   3]+0.002*[#   4]
          +0.002*[#   6]+0.002*[#   7]+0.002*[#   8]
    |psi|^2 = 0.014
==== e(  12) =    16.88546 eV ==== 
     psi = 0.006*[#   1]+0.006*[#   5]
    |psi|^2 = 0.013
==== e(  13) =    19.35465 eV ==== 
     psi = 0.003*[#   2]+0.003*[#   3]+0.003*[#   4]+0.003*[#   6]+0.003*[#   7]
          +0.003*[#   8]
    |psi|^2 = 0.017
==== e(  14) =    19.35465 eV ==== 
     psi = 0.003*[#   2]+0.003*[#   3]+0.003*[#   4]+0.003*[#   6]+0.003*[#   7]
          +0.003*[#   8]
    |psi|^2 = 0.017
==== e(  15) =    23.58363 eV ==== 
     psi = 0.003*[#   1]+0.003*[#   5]+0.003*[#   2]+0.003*[#   3]+0.003*[#   4]
          +0.003*[#   6]+0.003*[#   7]+0.003*[#   8]
    |psi|^2 = 0.022
==== e(  16) =    26.16402 eV ==== 
     psi = 0.004*[#   2]+0.004*[#   3]+0.004*[#   4]+0.004*[#   6]+0.004*[#   7]
          +0.004*[#   8]
    |psi|^2 = 0.023

 k =  -0.2500000000  0.2500000000 -0.2500000000
==== e(   1) =    -4.94882 eV ==== 
     psi = 0.383*[#   1]+0.383*[#   5]+0.038*[#   2]+0.038*[#   3]+0.038*[#   4]
          +0.038*[#   6]+0.038*[#   7]+0.038*[#   8]
    |psi|^2 = 0.996
==== e(   2) =     2.28863 eV ==== 
     psi = 0.141*[#   1]+0.141*[#   5]+0.117*[#   2]+0.117*[#   3]+0.117*[#   4]
          +0.117*[#   6]+0.117*[#   7]+0.117*[#   8]
    |psi|^2 = 0.986
==== e(   3) =     5.45802 eV ==== 
     psi = 0.163*[#   2]+0.163*[#   3]+0.163*[#   4]+0.163*[#   6]+0.163*[#   7]
          +0.163*[#   8]
    |psi|^2 = 0.980
==== e(   4) =     5.45802 eV ==== 
     psi = 0.163*[#   2]+0.163*[#   3]+0.163*[#   4]+0.163*[#   6]+0.163*[#   7]
          +0.163*[#   8]
    |psi|^2 = 0.980
==== e(   5) =     8.24919 eV ==== 
     psi = 0.264*[#   1]+0.264*[#   5]+0.069*[#   2]+0.069*[#   3]+0.069*[#   4]
          +0.069*[#   6]+0.069*[#   7]+0.069*[#   8]
    |psi|^2 = 0.944
==== e(   6) =     9.72394 eV ==== 
     psi = 0.148*[#   2]+0.148*[#   3]+0.148*[#   4]+0.148*[#   6]+0.148*[#   7]
          +0.148*[#   8]
    |psi|^2 = 0.885
==== e(   7) =     9.72394 eV ==== 
     psi = 0.148*[#   2]+0.148*[#   3]+0.148*[#   4]+0.148*[#   6]+0.148*[#   7]
          +0.148*[#   8]
    |psi|^2 = 0.885
==== e(   8) =    13.14293 eV ==== 
     psi = 0.179*[#   1]+0.179*[#   5]+0.088*[#   2]+0.088*[#   3]+0.088*[#   4]
          +0.088*[#   6]+0.088*[#   7]+0.088*[#   8]
    |psi|^2 = 0.888
==== e(   9) =    13.42217 eV ==== 
     psi = 0.008*[#   2]+0.008*[#   3]+0.008*[#   4]+0.008*[#   6]+0.008*[#   7]
          +0.008*[#   8]
    |psi|^2 = 0.046
==== e(  10) =    13.42217 eV ==== 
     psi = 0.008*[#   2]+0.008*[#   3]+0.008*[#   4]+0.008*[#   6]+0.008*[#   7]
          +0.008*[#   8]
    |psi|^2 = 0.046
==== e(  11) =    15.22306 eV ==== 
     psi = 0.008*[#   1]+0.008*[#   5]
    |psi|^2 = 0.018
==== e(  12) =    18.06990 eV ==== 
     psi = 0.011*[#   1]+0.011*[#   5]+0.002*[#   2]+0.002*[#   3]+0.002*[#   4]
          +0.002*[#   6]+0.002*[#   7]+0.002*[#   8]
    |psi|^2 = 0.036
==== e(  13) =    20.86306 eV ==== 
     psi = 0.004*[#   2]+0.004*[#   3]+0.004*[#   4]+0.004*[#   6]+0.004*[#   7]
          +0.004*[#   8]
    |psi|^2 = 0.023
==== e(  14) =    20.86306 eV ==== 
     psi = 0.004*[#   2]+0.004*[#   3]+0.004*[#   4]+0.004*[#   6]+0.004*[#   7]
          +0.004*[#   8]
    |psi|^2 = 0.023
==== e(  15) =    24.08853 eV ==== 
     psi = 0.004*[#   2]+0.004*[#   3]+0.004*[#   4]+0.004*[#   6]+0.004*[#   7]
          +0.004*[#   8]
    |psi|^2 = 0.025
==== e(  16) =    24.08853 eV ==== 
     psi = 0.004*[#   2]+0.004*[#   3]+0.004*[#   4]+0.004*[#   6]+0.004*[#   7]
          +0.004*[#   8]
    |psi|^2 = 0.025

 k =  -0.3333333333  0.3333333333 -0.3333333333
==== e(   1) =    -4.37137 eV ==== 
     psi = 0.362*[#   1]+0.362*[#   5]+0.045*[#   2]+0.045*[#   3]+0.045*[#   4]
          +0.045*[#   6]+0.045*[#   7]+0.045*[#   8]
    |psi|^2 = 0.996
==== e(   2) =     0.88021 eV ==== 
     psi = 0.151*[#   1]+0.151*[#   5]+0.114*[#   2]+0.114*[#   3]+0.114*[#   4]
          +0.114*[#   6]+0.114*[#   7]+0.114*[#   8]
    |psi|^2 = 0.988
==== e(   3) =     5.21693 eV ==== 
     psi = 0.164*[#   2]+0.164*[#   3]+0.164*[#   4]+0.164*[#   6]+0.164*[#   7]
          +0.164*[#   8]
    |psi|^2 = 0.984
==== e(   4) =     5.21693 eV ==== 
     psi = 0.164*[#   2]+0.164*[#   3]+0.164*[#   4]+0.164*[#   6]+0.164*[#   7]
          +0.164*[#   8]
    |psi|^2 = 0.984
==== e(   5) =     7.98371 eV ==== 
     psi = 0.306*[#   1]+0.306*[#   5]+0.054*[#   2]+0.054*[#   3]+0.054*[#   4]
          +0.054*[#   6]+0.054*[#   7]+0.054*[#   8]
    |psi|^2 = 0.933
==== e(   6) =     9.72506 eV ==== 
     psi = 0.135*[#   2]+0.135*[#   3]+0.135*[#   4]+0.135*[#   6]+0.135*[#   7]
          +0.135*[#   8]
    |psi|^2 = 0.812
==== e(   7) =     9.72506 eV ==== 
     psi = 0.135*[#   2]+0.135*[#   3]+0.135*[#   4]+0.135*[#   6]+0.135*[#   7]
          +0.135*[#   8]
    |psi|^2 = 0.812
==== e(   8) =    14.09290 eV ==== 
     psi = 0.072*[#   1]+0.072*[#   5]+0.060*[#   2]+0.060*[#   3]+0.060*[#   4]
          +0.060*[#   6]+0.060*[#   7]+0.060*[#   8]
    |psi|^2 = 0.502
==== e(   9) =    14.21236 eV ==== 
     psi = 0.016*[#   2]+0.016*[#   3]+0.016*[#   4]+0.016*[#   6]+0.016*[#   7]
          +0.016*[#   8]
    |psi|^2 = 0.093
==== e(  10) =    14.21236 eV ==== 
     psi = 0.016*[#   2]+0.016*[#   3]+0.016*[#   4]+0.016*[#   6]+0.016*[#   7]
          +0.016*[#   8]
    |psi|^2 = 0.093
==== e(  11) =    15.34805 eV ==== 
     psi = 0.069*[#   1]+0.069*[#   5]+0.025*[#   2]+0.025*[#   3]+0.025*[#   4]
          +0.025*[#   6]+0.025*[#   7]+0.025*[#   8]
    |psi|^2 = 0.287
==== e(  12) =    19.84232 eV ==== 
     psi = 0.021*[#   1]+0.021*[#   5]+0.015*[#   2]+0.015*[#   3]+0.015*[#   4]
          +0.015*[#   6]+0.015*[#   7]+0.015*[#   8]
    |psi|^2 = 0.131
==== e(  13) =    20.83103 eV ==== 
     psi = 0.010*[#   2]+0.010*[#   3]+0.010*[#   4]+0.010*[#   6]+0.010*[#   7]
          +0.010*[#   8]
    |psi|^2 = 0.063
==== e(  14) =    20.83103 eV ==== 
     psi = 0.010*[#   2]+0.010*[#   3]+0.010*[#   4]+0.010*[#   6]+0.010*[#   7]
          +0.010*[#   8]
    |psi|^2 = 0.063
==== e(  15) =    23.03767 eV ==== 
     psi = 0.019*[#   2]+0.019*[#   3]+0.019*[#   4]+0.019*[#   6]+0.019*[#   7]
          +0.019*[#   8]+0.012*[#   1]+0.012*[#   5]
    |psi|^2 = 0.137
==== e(  16) =    23.90224 eV ==== 

    |psi|^2 = 0.003

 k =  -0.4166666667  0.4166666667 -0.4166666667
==== e(   1) =    -3.75033 eV ==== 
     psi = 0.368*[#   1]+0.368*[#   5]+0.043*[#   2]+0.043*[#   3]+0.043*[#   4]
          +0.043*[#   6]+0.043*[#   7]+0.043*[#   8]
    |psi|^2 = 0.996
==== e(   2) =    -0.25072 eV ==== 
     psi = 0.139*[#   1]+0.139*[#   5]+0.118*[#   2]+0.118*[#   3]+0.118*[#   4]
          +0.118*[#   6]+0.118*[#   7]+0.118*[#   8]
    |psi|^2 = 0.988
==== e(   3) =     5.06824 eV ==== 
     psi = 0.164*[#   2]+0.164*[#   3]+0.164*[#   4]+0.164*[#   6]+0.164*[#   7]
          +0.164*[#   8]
    |psi|^2 = 0.987
==== e(   4) =     5.06824 eV ==== 
     psi = 0.164*[#   2]+0.164*[#   3]+0.164*[#   4]+0.164*[#   6]+0.164*[#   7]
          +0.164*[#   8]
    |psi|^2 = 0.987
==== e(   5) =     7.81552 eV ==== 
     psi = 0.331*[#   1]+0.331*[#   5]+0.044*[#   2]+0.044*[#   3]+0.044*[#   4]
          +0.044*[#   6]+0.044*[#   7]+0.044*[#   8]
    |psi|^2 = 0.923
==== e(   6) =     9.61230 eV ==== 
     psi = 0.129*[#   2]+0.129*[#   3]+0.129*[#   4]+0.129*[#   6]+0.129*[#   7]
          +0.129*[#   8]
    |psi|^2 = 0.776
==== e(   7) =     9.61230 eV ==== 
     psi = 0.129*[#   2]+0.129*[#   3]+0.129*[#   4]+0.129*[#   6]+0.129*[#   7]
          +0.129*[#   8]
    |psi|^2 = 0.776
==== e(   8) =    14.03630 eV ==== 
     psi = 0.027*[#   2]+0.027*[#   3]+0.027*[#   4]+0.027*[#   6]+0.027*[#   7]
          +0.027*[#   8]+0.024*[#   1]+0.024*[#   5]
    |psi|^2 = 0.208
==== e(   9) =    15.49912 eV ==== 
     psi = 0.016*[#   2]+0.016*[#   3]+0.016*[#   4]+0.016*[#   6]+0.016*[#   7]
          +0.016*[#   8]
    |psi|^2 = 0.094
==== e(  10) =    15.49912 eV ==== 
     psi = 0.016*[#   2]+0.016*[#   3]+0.016*[#   4]+0.016*[#   6]+0.016*[#   7]
          +0.016*[#   8]
    |psi|^2 = 0.094
==== e(  11) =    16.60210 eV ==== 
     psi = 0.073*[#   1]+0.073*[#   5]+0.037*[#   2]+0.037*[#   3]+0.037*[#   4]
          +0.037*[#   6]+0.037*[#   7]+0.037*[#   8]
    |psi|^2 = 0.369
==== e(  12) =    19.05304 eV ==== 
     psi = 0.016*[#   2]+0.016*[#   3]+0.016*[#   4]+0.016*[#   6]+0.016*[#   7]
          +0.016*[#   8]
    |psi|^2 = 0.095
==== e(  13) =    19.05304 eV ==== 
     psi = 0.016*[#   2]+0.016*[#   3]+0.016*[#   4]+0.016*[#   6]+0.016*[#   7]
          +0.016*[#   8]
    |psi|^2 = 0.095
==== e(  14) =    20.08267 eV ==== 
     psi = 0.059*[#   2]+0.059*[#   3]+0.059*[#   4]+0.059*[#   6]+0.059*[#   7]
          +0.059*[#   8]+0.051*[#   1]+0.051*[#   5]
    |psi|^2 = 0.457
==== e(  15) =    23.53141 eV ==== 
     psi = 0.007*[#   1]+0.007*[#   5]+0.002*[#   2]+0.002*[#   3]+0.002*[#   4]
          +0.002*[#   6]+0.002*[#   7]+0.002*[#   8]
    |psi|^2 = 0.028
==== e(  16) =    25.79804 eV ==== 

    |psi|^2 = 0.002

 k =   0.5000000000 -0.5000000000  0.5000000000
==== e(   1) =    -3.41577 eV ==== 
     psi = 0.386*[#   1]+0.386*[#   5]+0.037*[#   2]+0.037*[#   3]+0.037*[#   4]
          +0.037*[#   6]+0.037*[#   7]+0.037*[#   8]
    |psi|^2 = 0.997
==== e(   2) =    -0.75682 eV ==== 
     psi = 0.125*[#   2]+0.125*[#   3]+0.125*[#   4]+0.125*[#   6]+0.125*[#   7]
          +0.125*[#   8]+0.119*[#   1]+0.119*[#   5]
    |psi|^2 = 0.987
==== e(   3) =     5.01839 eV ==== 
     psi = 0.165*[#   2]+0.165*[#   3]+0.165*[#   4]+0.165*[#   6]+0.165*[#   7]
          +0.165*[#   8]
    |psi|^2 = 0.987
==== e(   4) =     5.01839 eV ==== 
     psi = 0.165*[#   2]+0.165*[#   3]+0.165*[#   4]+0.165*[#   6]+0.165*[#   7]
          +0.165*[#   8]
    |psi|^2 = 0.987
==== e(   5) =     7.75839 eV ==== 
     psi = 0.339*[#   1]+0.339*[#   5]+0.040*[#   2]+0.040*[#   3]+0.040*[#   4]
          +0.040*[#   6]+0.040*[#   7]+0.040*[#   8]
    |psi|^2 = 0.920
==== e(   6) =     9.55778 eV ==== 
     psi = 0.128*[#   2]+0.128*[#   3]+0.128*[#   4]+0.128*[#   6]+0.128*[#   7]
          +0.128*[#   8]
    |psi|^2 = 0.767
==== e(   7) =     9.55778 eV ==== 
     psi = 0.128*[#   2]+0.128*[#   3]+0.128*[#   4]+0.128*[#   6]+0.128*[#   7]
          +0.128*[#   8]
    |psi|^2 = 0.767
==== e(   8) =    13.95408 eV ==== 
     psi = 0.022*[#   2]+0.022*[#   3]+0.022*[#   4]+0.022*[#   6]+0.022*[#   7]
          +0.022*[#   8]+0.019*[#   1]+0.019*[#   5]
    |psi|^2 = 0.170
==== e(   9) =    16.77935 eV ==== 

    |psi|^2 = 0.006
==== e(  10) =    16.77935 eV ==== 

    |psi|^2 = 0.006
==== e(  11) =    17.56885 eV ==== 
     psi = 0.032*[#   2]+0.032*[#   3]+0.032*[#   4]+0.032*[#   6]+0.032*[#   7]
          +0.032*[#   8]
    |psi|^2 = 0.190
==== e(  12) =    17.56885 eV ==== 
     psi = 0.032*[#   2]+0.032*[#   3]+0.032*[#   4]+0.032*[#   6]+0.032*[#   7]
          +0.032*[#   8]
    |psi|^2 = 0.190
==== e(  13) =    17.58347 eV ==== 
     psi = 0.032*[#   1]+0.032*[#   5]
    |psi|^2 = 0.065
==== e(  14) =    19.23758 eV ==== 
     psi = 0.105*[#   2]+0.105*[#   3]+0.105*[#   4]+0.105*[#   6]+0.105*[#   7]
          +0.105*[#   8]+0.089*[#   1]+0.089*[#   5]
    |psi|^2 = 0.810
==== e(  15) =    25.57687 eV ==== 
     psi = 0.009*[#   1]+0.009*[#   5]+0.002*[#   2]+0.002*[#   3]+0.002*[#   4]
          +0.002*[#   6]+0.002*[#   7]+0.002*[#   8]
    |psi|^2 = 0.028
==== e(  16) =    26.21291 eV ==== 
     psi = 0.005*[#   1]+0.005*[#   5]+0.001*[#   2]+0.001*[#   3]+0.001*[#   4]
          +0.001*[#   6]+0.001*[#   7]+0.001*[#   8]
    |psi|^2 = 0.016

 k =   0.0000000000  0.1666666667  0.0000000000
==== e(   1) =    -5.62736 eV ==== 
     psi = 0.467*[#   1]+0.467*[#   5]+0.010*[#   2]+0.010*[#   3]+0.010*[#   4]
          +0.010*[#   6]+0.010*[#   7]+0.010*[#   8]
    |psi|^2 = 0.996
==== e(   2) =     5.52609 eV ==== 
     psi = 0.133*[#   2]+0.133*[#   3]+0.133*[#   4]+0.133*[#   6]+0.133*[#   7]
          +0.133*[#   8]+0.086*[#   1]+0.086*[#   5]
    |psi|^2 = 0.969
==== e(   3) =     5.78838 eV ==== 
     psi = 0.162*[#   2]+0.162*[#   3]+0.162*[#   4]+0.162*[#   6]+0.162*[#   7]
          +0.162*[#   8]
    |psi|^2 = 0.971
==== e(   4) =     5.78838 eV ==== 
     psi = 0.162*[#   2]+0.162*[#   3]+0.162*[#   4]+0.162*[#   6]+0.162*[#   7]
          +0.162*[#   8]
    |psi|^2 = 0.971
==== e(   5) =     8.50590 eV ==== 
     psi = 0.151*[#   2]+0.151*[#   3]+0.151*[#   4]+0.151*[#   6]+0.151*[#   7]
          +0.151*[#   8]+0.030*[#   1]+0.030*[#   5]
    |psi|^2 = 0.964
==== e(   6) =     9.36033 eV ==== 
     psi = 0.158*[#   2]+0.158*[#   3]+0.158*[#   4]+0.158*[#   6]+0.158*[#   7]
          +0.158*[#   8]
    |psi|^2 = 0.949
==== e(   7) =     9.36033 eV ==== 
     psi = 0.158*[#   2]+0.158*[#   3]+0.158*[#   4]+0.158*[#   6]+0.158*[#   7]
          +0.158*[#   8]
    |psi|^2 = 0.949
==== e(   8) =    10.22821 eV ==== 
     psi = 0.404*[#   1]+0.404*[#   5]+0.029*[#   2]+0.029*[#   3]+0.029*[#   4]
          +0.029*[#   6]+0.029*[#   7]+0.029*[#   8]
    |psi|^2 = 0.980
==== e(   9) =    13.18273 eV ==== 
     psi = 0.004*[#   1]+0.004*[#   5]
    |psi|^2 = 0.010
==== e(  10) =    14.08230 eV ==== 

    |psi|^2 = 0.000
==== e(  11) =    14.70057 eV ==== 
     psi = 0.002*[#   1]+0.002*[#   5]
    |psi|^2 = 0.004
==== e(  12) =    17.68943 eV ==== 
     psi = 0.004*[#   2]+0.004*[#   3]+0.004*[#   4]+0.004*[#   6]+0.004*[#   7]
          +0.004*[#   8]
    |psi|^2 = 0.023
==== e(  13) =    17.68943 eV ==== 
     psi = 0.004*[#   2]+0.004*[#   3]+0.004*[#   4]+0.004*[#   6]+0.004*[#   7]
          +0.004*[#   8]
    |psi|^2 = 0.023
==== e(  14) =    18.01193 eV ==== 
     psi = 0.002*[#   2]+0.002*[#   3]+0.002*[#   4]+0.002*[#   6]+0.002*[#   7]
          +0.002*[#   8]+0.001*[#   1]+0.001*[#   5]
    |psi|^2 = 0.014
==== e(  15) =    22.48547 eV ==== 
     psi = 0.004*[#   1]+0.004*[#   5]
    |psi|^2 = 0.013
==== e(  16) =    27.88977 eV ==== 
     psi = 0.005*[#   2]+0.005*[#   3]+0.005*[#   4]+0.005*[#   6]+0.005*[#   7]
          +0.005*[#   8]
    |psi|^2 = 0.028

 k =  -0.0833333333  0.2500000000 -0.0833333333
==== e(   1) =    -5.41629 eV ==== 
     psi = 0.428*[#   1]+0.428*[#   5]+0.023*[#   2]+0.023*[#   3]+0.023*[#   4]
          +0.023*[#   6]+0.023*[#   7]+0.023*[#   8]
    |psi|^2 = 0.996
==== e(   2) =     4.29031 eV ==== 
     psi = 0.126*[#   2]+0.126*[#   3]+0.126*[#   4]+0.126*[#   6]+0.126*[#   7]
          +0.126*[#   8]+0.112*[#   1]+0.112*[#   5]
    |psi|^2 = 0.979
==== e(   3) =     5.42352 eV ==== 
     psi = 0.163*[#   2]+0.163*[#   3]+0.163*[#   4]+0.163*[#   6]+0.163*[#   7]
          +0.163*[#   8]
    |psi|^2 = 0.977
==== e(   4) =     5.61527 eV ==== 
     psi = 0.153*[#   2]+0.153*[#   3]+0.153*[#   4]+0.153*[#   6]+0.153*[#   7]
          +0.153*[#   8]+0.027*[#   1]+0.027*[#   5]
    |psi|^2 = 0.975
==== e(   5) =     8.52910 eV ==== 
     psi = 0.141*[#   2]+0.141*[#   3]+0.141*[#   4]+0.141*[#   6]+0.141*[#   7]
          +0.141*[#   8]+0.053*[#   1]+0.053*[#   5]
    |psi|^2 = 0.953
==== e(   6) =     9.44489 eV ==== 
     psi = 0.123*[#   2]+0.123*[#   3]+0.123*[#   4]+0.123*[#   6]+0.123*[#   7]
          +0.123*[#   8]+0.107*[#   1]+0.107*[#   5]
    |psi|^2 = 0.952
==== e(   7) =     9.89967 eV ==== 
     psi = 0.155*[#   2]+0.155*[#   3]+0.155*[#   4]+0.155*[#   6]+0.155*[#   7]
          +0.155*[#   8]
    |psi|^2 = 0.931
==== e(   8) =    11.12396 eV ==== 
     psi = 0.219*[#   1]+0.219*[#   5]+0.068*[#   2]+0.068*[#   3]+0.068*[#   4]
          +0.068*[#   6]+0.068*[#   7]+0.068*[#   8]
    |psi|^2 = 0.848
==== e(   9) =    12.84784 eV ==== 
     psi = 0.041*[#   1]+0.041*[#   5]+0.006*[#   2]+0.006*[#   3]+0.006*[#   4]
          +0.006*[#   6]+0.006*[#   7]+0.006*[#   8]
    |psi|^2 = 0.121
==== e(  10) =    14.02490 eV ==== 

    |psi|^2 = 0.004
==== e(  11) =    15.42803 eV ==== 
     psi = 0.002*[#   1]+0.002*[#   5]
    |psi|^2 = 0.008
==== e(  12) =    17.29780 eV ==== 
     psi = 0.002*[#   1]+0.002*[#   5]+0.002*[#   2]+0.002*[#   3]+0.002*[#   4]
          +0.002*[#   6]+0.002*[#   7]+0.002*[#   8]
    |psi|^2 = 0.015
==== e(  13) =    18.42056 eV ==== 
     psi = 0.004*[#   2]+0.004*[#   3]+0.004*[#   4]+0.004*[#   6]+0.004*[#   7]
          +0.004*[#   8]
    |psi|^2 = 0.021
==== e(  14) =    19.24386 eV ==== 
     psi = 0.002*[#   2]+0.002*[#   3]+0.002*[#   4]+0.002*[#   6]+0.002*[#   7]
          +0.002*[#   8]
    |psi|^2 = 0.014
==== e(  15) =    23.64604 eV ==== 
     psi = 0.003*[#   1]+0.003*[#   5]+0.002*[#   2]+0.002*[#   3]+0.002*[#   4]
          +0.002*[#   6]+0.002*[#   7]+0.002*[#   8]
    |psi|^2 = 0.017
==== e(  16) =    26.05095 eV ==== 
     psi = 0.005*[#   2]+0.005*[#   3]+0.005*[#   4]+0.005*[#   6]+0.005*[#   7]
          +0.005*[#   8]
    |psi|^2 = 0.030

 k =  -0.1666666667  0.3333333333 -0.1666666667
==== e(   1) =    -5.03216 eV ==== 
     psi = 0.387*[#   1]+0.387*[#   5]+0.037*[#   2]+0.037*[#   3]+0.037*[#   4]
          +0.037*[#   6]+0.037*[#   7]+0.037*[#   8]
    |psi|^2 = 0.996
==== e(   2) =     2.78681 eV ==== 
     psi = 0.141*[#   1]+0.141*[#   5]+0.117*[#   2]+0.117*[#   3]+0.117*[#   4]
          +0.117*[#   6]+0.117*[#   7]+0.117*[#   8]
    |psi|^2 = 0.985
==== e(   3) =     5.10983 eV ==== 
     psi = 0.164*[#   2]+0.164*[#   3]+0.164*[#   4]+0.164*[#   6]+0.164*[#   7]
          +0.164*[#   8]
    |psi|^2 = 0.982
==== e(   4) =     5.29132 eV ==== 
     psi = 0.150*[#   2]+0.150*[#   3]+0.150*[#   4]+0.150*[#   6]+0.150*[#   7]
          +0.150*[#   8]+0.040*[#   1]+0.040*[#   5]
    |psi|^2 = 0.980
==== e(   5) =     8.65789 eV ==== 
     psi = 0.133*[#   1]+0.133*[#   5]+0.110*[#   2]+0.110*[#   3]+0.110*[#   4]
          +0.110*[#   6]+0.110*[#   7]+0.110*[#   8]
    |psi|^2 = 0.928
==== e(   6) =     9.43369 eV ==== 
     psi = 0.129*[#   2]+0.129*[#   3]+0.129*[#   4]+0.129*[#   6]+0.129*[#   7]
          +0.129*[#   8]+0.084*[#   1]+0.084*[#   5]
    |psi|^2 = 0.941
==== e(   7) =    10.28570 eV ==== 
     psi = 0.148*[#   2]+0.148*[#   3]+0.148*[#   4]+0.148*[#   6]+0.148*[#   7]
          +0.148*[#   8]
    |psi|^2 = 0.887
==== e(   8) =    11.62265 eV ==== 
     psi = 0.084*[#   1]+0.084*[#   5]+0.044*[#   2]+0.044*[#   3]+0.044*[#   4]
          +0.044*[#   6]+0.044*[#   7]+0.044*[#   8]
    |psi|^2 = 0.434
==== e(   9) =    13.62118 eV ==== 
     psi = 0.111*[#   1]+0.111*[#   5]+0.048*[#   2]+0.048*[#   3]+0.048*[#   4]
          +0.048*[#   6]+0.048*[#   7]+0.048*[#   8]
    |psi|^2 = 0.508
==== e(  10) =    14.08446 eV ==== 
     psi = 0.005*[#   2]+0.005*[#   3]+0.005*[#   4]+0.005*[#   6]+0.005*[#   7]
          +0.005*[#   8]
    |psi|^2 = 0.029
==== e(  11) =    15.77569 eV ==== 
     psi = 0.003*[#   1]+0.003*[#   5]+0.002*[#   2]+0.002*[#   3]+0.002*[#   4]
          +0.002*[#   6]+0.002*[#   7]+0.002*[#   8]
    |psi|^2 = 0.017
==== e(  12) =    17.72477 eV ==== 
     psi = 0.007*[#   1]+0.007*[#   5]
    |psi|^2 = 0.017
==== e(  13) =    19.76410 eV ==== 
     psi = 0.004*[#   2]+0.004*[#   3]+0.004*[#   4]+0.004*[#   6]+0.004*[#   7]
          +0.004*[#   8]
    |psi|^2 = 0.025
==== e(  14) =    20.86950 eV ==== 
     psi = 0.003*[#   2]+0.003*[#   3]+0.003*[#   4]+0.003*[#   6]+0.003*[#   7]
          +0.003*[#   8]
    |psi|^2 = 0.016
==== e(  15) =    23.85909 eV ==== 
     psi = 0.006*[#   2]+0.006*[#   3]+0.006*[#   4]+0.006*[#   6]+0.006*[#   7]
          +0.006*[#   8]
    |psi|^2 = 0.034
==== e(  16) =    24.29040 eV ==== 
     psi = 0.010*[#   2]+0.010*[#   3]+0.010*[#   4]+0.010*[#   6]+0.010*[#   7]
          +0.010*[#   8]+0.005*[#   1]+0.005*[#   5]
    |psi|^2 = 0.069

 k =  -0.2500000000  0.4166666667 -0.2500000000
==== e(   1) =    -4.49586 eV ==== 
     psi = 0.361*[#   1]+0.361*[#   5]+0.046*[#   2]+0.046*[#   3]+0.046*[#   4]
          +0.046*[#   6]+0.046*[#   7]+0.046*[#   8]
    |psi|^2 = 0.995
==== e(   2) =     1.34894 eV ==== 
     psi = 0.156*[#   1]+0.156*[#   5]+0.113*[#   2]+0.113*[#   3]+0.113*[#   4]
          +0.113*[#   6]+0.113*[#   7]+0.113*[#   8]
    |psi|^2 = 0.988
==== e(   3) =     4.89961 eV ==== 
     psi = 0.164*[#   2]+0.164*[#   3]+0.164*[#   4]+0.164*[#   6]+0.164*[#   7]
          +0.164*[#   8]
    |psi|^2 = 0.985
==== e(   4) =     4.93756 eV ==== 
     psi = 0.149*[#   2]+0.149*[#   3]+0.149*[#   4]+0.149*[#   6]+0.149*[#   7]
          +0.149*[#   8]+0.046*[#   1]+0.046*[#   5]
    |psi|^2 = 0.985
==== e(   5) =     8.51516 eV ==== 
     psi = 0.211*[#   1]+0.211*[#   5]+0.082*[#   2]+0.082*[#   3]+0.082*[#   4]
          +0.082*[#   6]+0.082*[#   7]+0.082*[#   8]
    |psi|^2 = 0.913
==== e(   6) =     9.51583 eV ==== 
     psi = 0.131*[#   2]+0.131*[#   3]+0.131*[#   4]+0.131*[#   6]+0.131*[#   7]
          +0.131*[#   8]+0.036*[#   1]+0.036*[#   5]
    |psi|^2 = 0.856
==== e(   7) =    10.30867 eV ==== 
     psi = 0.136*[#   2]+0.136*[#   3]+0.136*[#   4]+0.136*[#   6]+0.136*[#   7]
          +0.136*[#   8]
    |psi|^2 = 0.814
==== e(   8) =    12.19301 eV ==== 
     psi = 0.058*[#   1]+0.058*[#   5]+0.041*[#   2]+0.041*[#   3]+0.041*[#   4]
          +0.041*[#   6]+0.041*[#   7]+0.041*[#   8]
    |psi|^2 = 0.365
==== e(   9) =    14.74350 eV ==== 
     psi = 0.012*[#   2]+0.012*[#   3]+0.012*[#   4]+0.012*[#   6]+0.012*[#   7]
          +0.012*[#   8]
    |psi|^2 = 0.074
==== e(  10) =    14.87839 eV ==== 
     psi = 0.068*[#   1]+0.068*[#   5]+0.054*[#   2]+0.054*[#   3]+0.054*[#   4]
          +0.054*[#   6]+0.054*[#   7]+0.054*[#   8]
    |psi|^2 = 0.458
==== e(  11) =    15.55118 eV ==== 
     psi = 0.033*[#   1]+0.033*[#   5]+0.008*[#   2]+0.008*[#   3]+0.008*[#   4]
          +0.008*[#   6]+0.008*[#   7]+0.008*[#   8]
    |psi|^2 = 0.115
==== e(  12) =    19.30789 eV ==== 
     psi = 0.014*[#   1]+0.014*[#   5]+0.008*[#   2]+0.008*[#   3]+0.008*[#   4]
          +0.008*[#   6]+0.008*[#   7]+0.008*[#   8]
    |psi|^2 = 0.077
==== e(  13) =    20.40803 eV ==== 
     psi = 0.012*[#   2]+0.012*[#   3]+0.012*[#   4]+0.012*[#   6]+0.012*[#   7]
          +0.012*[#   8]
    |psi|^2 = 0.071
==== e(  14) =    21.63936 eV ==== 
     psi = 0.008*[#   2]+0.008*[#   3]+0.008*[#   4]+0.008*[#   6]+0.008*[#   7]
          +0.008*[#   8]+0.004*[#   1]+0.004*[#   5]
    |psi|^2 = 0.056
==== e(  15) =    22.80903 eV ==== 
     psi = 0.001*[#   2]+0.001*[#   3]+0.001*[#   4]+0.001*[#   6]+0.001*[#   7]
          +0.001*[#   8]
    |psi|^2 = 0.008
==== e(  16) =    23.48619 eV ==== 
     psi = 0.009*[#   2]+0.009*[#   3]+0.009*[#   4]+0.009*[#   6]+0.009*[#   7]
          +0.009*[#   8]+0.005*[#   1]+0.005*[#   5]
    |psi|^2 = 0.067

 k =  -0.3333333333  0.5000000000 -0.3333333333
==== e(   1) =    -3.86976 eV ==== 
     psi = 0.357*[#   1]+0.357*[#   5]+0.047*[#   2]+0.047*[#   3]+0.047*[#   4]
          +0.047*[#   6]+0.047*[#   7]+0.047*[#   8]
    |psi|^2 = 0.996
==== e(   2) =     0.11742 eV ==== 
     psi = 0.152*[#   1]+0.152*[#   5]+0.114*[#   2]+0.114*[#   3]+0.114*[#   4]
          +0.114*[#   6]+0.114*[#   7]+0.114*[#   8]
    |psi|^2 = 0.988
==== e(   3) =     4.64081 eV ==== 
     psi = 0.149*[#   2]+0.149*[#   3]+0.149*[#   4]+0.149*[#   6]+0.149*[#   7]
          +0.149*[#   8]+0.047*[#   1]+0.047*[#   5]
    |psi|^2 = 0.987
==== e(   4) =     4.80974 eV ==== 
     psi = 0.164*[#   2]+0.164*[#   3]+0.164*[#   4]+0.164*[#   6]+0.164*[#   7]
          +0.164*[#   8]
    |psi|^2 = 0.987
==== e(   5) =     8.34975 eV ==== 
     psi = 0.249*[#   1]+0.249*[#   5]+0.068*[#   2]+0.068*[#   3]+0.068*[#   4]
          +0.068*[#   6]+0.068*[#   7]+0.068*[#   8]
    |psi|^2 = 0.904
==== e(   6) =     9.48299 eV ==== 
     psi = 0.123*[#   2]+0.123*[#   3]+0.123*[#   4]+0.123*[#   6]+0.123*[#   7]
          +0.123*[#   8]+0.022*[#   1]+0.022*[#   5]
    |psi|^2 = 0.785
==== e(   7) =    10.11283 eV ==== 
     psi = 0.128*[#   2]+0.128*[#   3]+0.128*[#   4]+0.128*[#   6]+0.128*[#   7]
          +0.128*[#   8]
    |psi|^2 = 0.770
==== e(   8) =    13.24269 eV ==== 
     psi = 0.049*[#   1]+0.049*[#   5]+0.046*[#   2]+0.046*[#   3]+0.046*[#   4]
          +0.046*[#   6]+0.046*[#   7]+0.046*[#   8]
    |psi|^2 = 0.371
==== e(   9) =    14.95168 eV ==== 
     psi = 0.009*[#   2]+0.009*[#   3]+0.009*[#   4]+0.009*[#   6]+0.009*[#   7]
          +0.009*[#   8]+0.005*[#   1]+0.005*[#   5]
    |psi|^2 = 0.064
==== e(  10) =    15.93248 eV ==== 
     psi = 0.013*[#   2]+0.013*[#   3]+0.013*[#   4]+0.013*[#   6]+0.013*[#   7]
          +0.013*[#   8]
    |psi|^2 = 0.079
==== e(  11) =    16.71030 eV ==== 
     psi = 0.064*[#   1]+0.064*[#   5]+0.041*[#   2]+0.041*[#   3]+0.041*[#   4]
          +0.041*[#   6]+0.041*[#   7]+0.041*[#   8]
    |psi|^2 = 0.373
==== e(  12) =    18.82868 eV ==== 
     psi = 0.019*[#   2]+0.019*[#   3]+0.019*[#   4]+0.019*[#   6]+0.019*[#   7]
          +0.019*[#   8]
    |psi|^2 = 0.113
==== e(  13) =    19.47730 eV ==== 
     psi = 0.033*[#   2]+0.033*[#   3]+0.033*[#   4]+0.033*[#   6]+0.033*[#   7]
          +0.033*[#   8]+0.030*[#   1]+0.030*[#   5]
    |psi|^2 = 0.258
==== e(  14) =    21.36819 eV ==== 
     psi = 0.017*[#   2]+0.017*[#   3]+0.017*[#   4]+0.017*[#   6]+0.017*[#   7]
          +0.017*[#   8]+0.009*[#   1]+0.009*[#   5]
    |psi|^2 = 0.121
==== e(  15) =    23.16317 eV ==== 
     psi = 0.009*[#   2]+0.009*[#   3]+0.009*[#   4]+0.009*[#   6]+0.009*[#   7]
          +0.009*[#   8]+0.008*[#   1]+0.008*[#   5]
    |psi|^2 = 0.071
==== e(  16) =    24.39238 eV ==== 

    |psi|^2 = 0.001

 k =   0.5833333333 -0.4166666667  0.5833333333
==== e(   1) =    -3.37838 eV ==== 
     psi = 0.377*[#   1]+0.377*[#   5]+0.041*[#   2]+0.041*[#   3]+0.041*[#   4]
          +0.041*[#   6]+0.041*[#   7]+0.041*[#   8]
    |psi|^2 = 0.997
==== e(   2) =    -0.65336 eV ==== 
     psi = 0.129*[#   1]+0.129*[#   5]+0.122*[#   2]+0.122*[#   3]+0.122*[#   4]
          +0.122*[#   6]+0.122*[#   7]+0.122*[#   8]
    |psi|^2 = 0.987
==== e(   3) =     4.43541 eV ==== 
     psi = 0.149*[#   2]+0.149*[#   3]+0.149*[#   4]+0.149*[#   6]+0.149*[#   7]
          +0.149*[#   8]+0.047*[#   1]+0.047*[#   5]
    |psi|^2 = 0.988
==== e(   4) =     4.84078 eV ==== 
     psi = 0.165*[#   2]+0.165*[#   3]+0.165*[#   4]+0.165*[#   6]+0.165*[#   7]
          +0.165*[#   8]
    |psi|^2 = 0.988
==== e(   5) =     8.26967 eV ==== 
     psi = 0.268*[#   1]+0.268*[#   5]+0.061*[#   2]+0.061*[#   3]+0.061*[#   4]
          +0.061*[#   6]+0.061*[#   7]+0.061*[#   8]
    |psi|^2 = 0.901
==== e(   6) =     9.48476 eV ==== 
     psi = 0.121*[#   2]+0.121*[#   3]+0.121*[#   4]+0.121*[#   6]+0.121*[#   7]
          +0.121*[#   8]+0.018*[#   1]+0.018*[#   5]
    |psi|^2 = 0.760
==== e(   7) =     9.91259 eV ==== 
     psi = 0.126*[#   2]+0.126*[#   3]+0.126*[#   4]+0.126*[#   6]+0.126*[#   7]
          +0.126*[#   8]
    |psi|^2 = 0.756
==== e(   8) =    14.14565 eV ==== 
     psi = 0.039*[#   2]+0.039*[#   3]+0.039*[#   4]+0.039*[#   6]+0.039*[#   7]
          +0.039*[#   8]+0.036*[#   1]+0.036*[#   5]
    |psi|^2 = 0.304
==== e(   9) =    15.26498 eV ==== 
     psi = 0.009*[#   1]+0.009*[#   5]+0.006*[#   2]+0.006*[#   3]+0.006*[#   4]
          +0.006*[#   6]+0.006*[#   7]+0.006*[#   8]
    |psi|^2 = 0.056
==== e(  10) =    16.73684 eV ==== 
     psi = 0.006*[#   2]+0.006*[#   3]+0.006*[#   4]+0.006*[#   6]+0.006*[#   7]
          +0.006*[#   8]
    |psi|^2 = 0.036
==== e(  11) =    17.64913 eV ==== 
     psi = 0.020*[#   1]+0.020*[#   5]+0.014*[#   2]+0.014*[#   3]+0.014*[#   4]
          +0.014*[#   6]+0.014*[#   7]+0.014*[#   8]
    |psi|^2 = 0.126
==== e(  12) =    17.72277 eV ==== 
     psi = 0.028*[#   2]+0.028*[#   3]+0.028*[#   4]+0.028*[#   6]+0.028*[#   7]
          +0.028*[#   8]
    |psi|^2 = 0.166
==== e(  13) =    18.54763 eV ==== 
     psi = 0.049*[#   1]+0.049*[#   5]+0.046*[#   2]+0.046*[#   3]+0.046*[#   4]
          +0.046*[#   6]+0.046*[#   7]+0.046*[#   8]
    |psi|^2 = 0.374
==== e(  14) =    20.22060 eV ==== 
     psi = 0.056*[#   2]+0.056*[#   3]+0.056*[#   4]+0.056*[#   6]+0.056*[#   7]
          +0.056*[#   8]+0.033*[#   1]+0.033*[#   5]
    |psi|^2 = 0.403
==== e(  15) =    24.93885 eV ==== 
     psi = 0.007*[#   1]+0.007*[#   5]+0.001*[#   2]+0.001*[#   3]+0.001*[#   4]
          +0.001*[#   6]+0.001*[#   7]+0.001*[#   8]
    |psi|^2 = 0.022
==== e(  16) =    26.54171 eV ==== 
     psi = 0.005*[#   1]+0.005*[#   5]+0.001*[#   2]+0.001*[#   3]+0.001*[#   4]
          +0.001*[#   6]+0.001*[#   7]+0.001*[#   8]
    |psi|^2 = 0.018

 k =   0.5000000000 -0.3333333333  0.5000000000
==== e(   1) =    -3.49940 eV ==== 
     psi = 0.369*[#   1]+0.369*[#   5]+0.043*[#   2]+0.043*[#   3]+0.043*[#   4]
          +0.043*[#   6]+0.043*[#   7]+0.043*[#   8]
    |psi|^2 = 0.996
==== e(   2) =    -0.47539 eV ==== 
     psi = 0.137*[#   1]+0.137*[#   5]+0.119*[#   2]+0.119*[#   3]+0.119*[#   4]
          +0.119*[#   6]+0.119*[#   7]+0.119*[#   8]
    |psi|^2 = 0.988
==== e(   3) =     4.33975 eV ==== 
     psi = 0.150*[#   2]+0.150*[#   3]+0.150*[#   4]+0.150*[#   6]+0.150*[#   7]
          +0.150*[#   8]+0.044*[#   1]+0.044*[#   5]
    |psi|^2 = 0.988
==== e(   4) =     4.98419 eV ==== 
     psi = 0.165*[#   2]+0.165*[#   3]+0.165*[#   4]+0.165*[#   6]+0.165*[#   7]
          +0.165*[#   8]
    |psi|^2 = 0.988
==== e(   5) =     8.29677 eV ==== 
     psi = 0.272*[#   1]+0.272*[#   5]+0.060*[#   2]+0.060*[#   3]+0.060*[#   4]
          +0.060*[#   6]+0.060*[#   7]+0.060*[#   8]
    |psi|^2 = 0.906
==== e(   6) =     9.60143 eV ==== 
     psi = 0.122*[#   2]+0.122*[#   3]+0.122*[#   4]+0.122*[#   6]+0.122*[#   7]
          +0.122*[#   8]+0.014*[#   1]+0.014*[#   5]
    |psi|^2 = 0.757
==== e(   7) =     9.80133 eV ==== 
     psi = 0.127*[#   2]+0.127*[#   3]+0.127*[#   4]+0.127*[#   6]+0.127*[#   7]
          +0.127*[#   8]
    |psi|^2 = 0.762
==== e(   8) =    14.25418 eV ==== 
     psi = 0.038*[#   2]+0.038*[#   3]+0.038*[#   4]+0.038*[#   6]+0.038*[#   7]
          +0.038*[#   8]+0.037*[#   1]+0.037*[#   5]
    |psi|^2 = 0.304
==== e(   9) =    15.18258 eV ==== 
     psi = 0.019*[#   2]+0.019*[#   3]+0.019*[#   4]+0.019*[#   6]+0.019*[#   7]
          +0.019*[#   8]
    |psi|^2 = 0.114
==== e(  10) =    15.71497 eV ==== 
     psi = 0.022*[#   1]+0.022*[#   5]+0.005*[#   2]+0.005*[#   3]+0.005*[#   4]
          +0.005*[#   6]+0.005*[#   7]+0.005*[#   8]
    |psi|^2 = 0.076
==== e(  11) =    17.39423 eV ==== 
     psi = 0.033*[#   2]+0.033*[#   3]+0.033*[#   4]+0.033*[#   6]+0.033*[#   7]
          +0.033*[#   8]+0.021*[#   1]+0.021*[#   5]
    |psi|^2 = 0.239
==== e(  12) =    18.28071 eV ==== 
     psi = 0.028*[#   1]+0.028*[#   5]+0.021*[#   2]+0.021*[#   3]+0.021*[#   4]
          +0.021*[#   6]+0.021*[#   7]+0.021*[#   8]
    |psi|^2 = 0.184
==== e(  13) =    19.37426 eV ==== 
     psi = 0.014*[#   2]+0.014*[#   3]+0.014*[#   4]+0.014*[#   6]+0.014*[#   7]
          +0.014*[#   8]
    |psi|^2 = 0.084
==== e(  14) =    20.21901 eV ==== 
     psi = 0.062*[#   2]+0.062*[#   3]+0.062*[#   4]+0.062*[#   6]+0.062*[#   7]
          +0.062*[#   8]+0.041*[#   1]+0.041*[#   5]
    |psi|^2 = 0.457
==== e(  15) =    24.05028 eV ==== 
     psi = 0.007*[#   1]+0.007*[#   5]+0.001*[#   2]+0.001*[#   3]+0.001*[#   4]
          +0.001*[#   6]+0.001*[#   7]+0.001*[#   8]
    |psi|^2 = 0.020
==== e(  16) =    25.79056 eV ==== 

    |psi|^2 = 0.004

 k =   0.4166666667 -0.2500000000  0.4166666667
==== e(   1) =    -4.08188 eV ==== 
     psi = 0.356*[#   1]+0.356*[#   5]+0.047*[#   2]+0.047*[#   3]+0.047*[#   4]
          +0.047*[#   6]+0.047*[#   7]+0.047*[#   8]
    |psi|^2 = 0.996
==== e(   2) =     0.49804 eV ==== 
     psi = 0.155*[#   1]+0.155*[#   5]+0.113*[#   2]+0.113*[#   3]+0.113*[#   4]
          +0.113*[#   6]+0.113*[#   7]+0.113*[#   8]
    |psi|^2 = 0.989
==== e(   3) =     4.36688 eV ==== 
     psi = 0.151*[#   2]+0.151*[#   3]+0.151*[#   4]+0.151*[#   6]+0.151*[#   7]
          +0.151*[#   8]+0.041*[#   1]+0.041*[#   5]
    |psi|^2 = 0.987
==== e(   4) =     5.22432 eV ==== 
     psi = 0.164*[#   2]+0.164*[#   3]+0.164*[#   4]+0.164*[#   6]+0.164*[#   7]
          +0.164*[#   8]
    |psi|^2 = 0.986
==== e(   5) =     8.42985 eV ==== 
     psi = 0.258*[#   1]+0.258*[#   5]+0.067*[#   2]+0.067*[#   3]+0.067*[#   4]
          +0.067*[#   6]+0.067*[#   7]+0.067*[#   8]
    |psi|^2 = 0.917
==== e(   6) =     9.76914 eV ==== 
     psi = 0.133*[#   2]+0.133*[#   3]+0.133*[#   4]+0.133*[#   6]+0.133*[#   7]
          +0.133*[#   8]
    |psi|^2 = 0.798
==== e(   7) =     9.81126 eV ==== 
     psi = 0.125*[#   2]+0.125*[#   3]+0.125*[#   4]+0.125*[#   6]+0.125*[#   7]
          +0.125*[#   8]+0.011*[#   1]+0.011*[#   5]
    |psi|^2 = 0.773
==== e(   8) =    13.71116 eV ==== 
     psi = 0.077*[#   1]+0.077*[#   5]+0.058*[#   2]+0.058*[#   3]+0.058*[#   4]
          +0.058*[#   6]+0.058*[#   7]+0.058*[#   8]
    |psi|^2 = 0.503
==== e(   9) =    13.80056 eV ==== 
     psi = 0.019*[#   2]+0.019*[#   3]+0.019*[#   4]+0.019*[#   6]+0.019*[#   7]
          +0.019*[#   8]
    |psi|^2 = 0.111
==== e(  10) =    15.34751 eV ==== 
     psi = 0.009*[#   1]+0.009*[#   5]+0.001*[#   2]+0.001*[#   3]+0.001*[#   4]
          +0.001*[#   6]+0.001*[#   7]+0.001*[#   8]
    |psi|^2 = 0.024
==== e(  11) =    16.73656 eV ==== 
     psi = 0.047*[#   1]+0.047*[#   5]+0.038*[#   2]+0.038*[#   3]+0.038*[#   4]
          +0.038*[#   6]+0.038*[#   7]+0.038*[#   8]
    |psi|^2 = 0.325
==== e(  12) =    18.87302 eV ==== 
     psi = 0.022*[#   2]+0.022*[#   3]+0.022*[#   4]+0.022*[#   6]+0.022*[#   7]
          +0.022*[#   8]+0.016*[#   1]+0.016*[#   5]
    |psi|^2 = 0.164
==== e(  13) =    20.68336 eV ==== 
     psi = 0.017*[#   2]+0.017*[#   3]+0.017*[#   4]+0.017*[#   6]+0.017*[#   7]
          +0.017*[#   8]+0.012*[#   1]+0.012*[#   5]
    |psi|^2 = 0.125
==== e(  14) =    21.22127 eV ==== 
     psi = 0.009*[#   2]+0.009*[#   3]+0.009*[#   4]+0.009*[#   6]+0.009*[#   7]
          +0.009*[#   8]
    |psi|^2 = 0.054
==== e(  15) =    22.81042 eV ==== 
     psi = 0.013*[#   2]+0.013*[#   3]+0.013*[#   4]+0.013*[#   6]+0.013*[#   7]
          +0.013*[#   8]+0.009*[#   1]+0.009*[#   5]
    |psi|^2 = 0.098
==== e(  16) =    23.73395 eV ==== 
     psi = 0.003*[#   2]+0.003*[#   3]+0.003*[#   4]+0.003*[#   6]+0.003*[#   7]
          +0.003*[#   8]+0.002*[#   1]+0.002*[#   5]
    |psi|^2 = 0.022

 k =   0.3333333333 -0.1666666667  0.3333333333
==== e(   1) =    -4.69027 eV ==== 
     psi = 0.368*[#   1]+0.368*[#   5]+0.043*[#   2]+0.043*[#   3]+0.043*[#   4]
          +0.043*[#   6]+0.043*[#   7]+0.043*[#   8]
    |psi|^2 = 0.995
==== e(   2) =     1.81380 eV ==== 
     psi = 0.152*[#   1]+0.152*[#   5]+0.114*[#   2]+0.114*[#   3]+0.114*[#   4]
          +0.114*[#   6]+0.114*[#   7]+0.114*[#   8]
    |psi|^2 = 0.987
==== e(   3) =     4.52660 eV ==== 
     psi = 0.152*[#   2]+0.152*[#   3]+0.152*[#   4]+0.152*[#   6]+0.152*[#   7]
          +0.152*[#   8]+0.037*[#   1]+0.037*[#   5]
    |psi|^2 = 0.985
==== e(   4) =     5.53507 eV ==== 
     psi = 0.164*[#   2]+0.164*[#   3]+0.164*[#   4]+0.164*[#   6]+0.164*[#   7]
          +0.164*[#   8]
    |psi|^2 = 0.982
==== e(   5) =     8.65558 eV ==== 
     psi = 0.228*[#   1]+0.228*[#   5]+0.079*[#   2]+0.079*[#   3]+0.079*[#   4]
          +0.079*[#   6]+0.079*[#   7]+0.079*[#   8]
    |psi|^2 = 0.931
==== e(   6) =     9.68795 eV ==== 
     psi = 0.146*[#   2]+0.146*[#   3]+0.146*[#   4]+0.146*[#   6]+0.146*[#   7]
          +0.146*[#   8]
    |psi|^2 = 0.878
==== e(   7) =     9.96434 eV ==== 
     psi = 0.134*[#   2]+0.134*[#   3]+0.134*[#   4]+0.134*[#   6]+0.134*[#   7]
          +0.134*[#   8]+0.014*[#   1]+0.014*[#   5]
    |psi|^2 = 0.831
==== e(   8) =    12.74283 eV ==== 
     psi = 0.114*[#   1]+0.114*[#   5]+0.062*[#   2]+0.062*[#   3]+0.062*[#   4]
          +0.062*[#   6]+0.062*[#   7]+0.062*[#   8]
    |psi|^2 = 0.602
==== e(   9) =    12.88798 eV ==== 
     psi = 0.009*[#   2]+0.009*[#   3]+0.009*[#   4]+0.009*[#   6]+0.009*[#   7]
          +0.009*[#   8]
    |psi|^2 = 0.056
==== e(  10) =    15.26931 eV ==== 
     psi = 0.054*[#   1]+0.054*[#   5]+0.038*[#   2]+0.038*[#   3]+0.038*[#   4]
          +0.038*[#   6]+0.038*[#   7]+0.038*[#   8]
    |psi|^2 = 0.337
==== e(  11) =    15.61609 eV ==== 
     psi = 0.007*[#   1]+0.007*[#   5]+0.001*[#   2]+0.001*[#   3]+0.001*[#   4]
          +0.001*[#   6]+0.001*[#   7]+0.001*[#   8]
    |psi|^2 = 0.021
==== e(  12) =    18.64463 eV ==== 
     psi = 0.011*[#   1]+0.011*[#   5]+0.004*[#   2]+0.004*[#   3]+0.004*[#   4]
          +0.004*[#   6]+0.004*[#   7]+0.004*[#   8]
    |psi|^2 = 0.049
==== e(  13) =    20.37294 eV ==== 
     psi = 0.008*[#   2]+0.008*[#   3]+0.008*[#   4]+0.008*[#   6]+0.008*[#   7]
          +0.008*[#   8]
    |psi|^2 = 0.047
==== e(  14) =    22.07626 eV ==== 
     psi = 0.004*[#   2]+0.004*[#   3]+0.004*[#   4]+0.004*[#   6]+0.004*[#   7]
          +0.004*[#   8]
    |psi|^2 = 0.023
==== e(  15) =    22.28833 eV ==== 
     psi = 0.005*[#   2]+0.005*[#   3]+0.005*[#   4]+0.005*[#   6]+0.005*[#   7]
          +0.005*[#   8]+0.003*[#   1]+0.003*[#   5]
    |psi|^2 = 0.034
==== e(  16) =    24.25504 eV ==== 
     psi = 0.016*[#   2]+0.016*[#   3]+0.016*[#   4]+0.016*[#   6]+0.016*[#   7]
          +0.016*[#   8]+0.004*[#   1]+0.004*[#   5]
    |psi|^2 = 0.106

 k =   0.2500000000 -0.0833333333  0.2500000000
==== e(   1) =    -5.17933 eV ==== 
     psi = 0.400*[#   1]+0.400*[#   5]+0.033*[#   2]+0.033*[#   3]+0.033*[#   4]
          +0.033*[#   6]+0.033*[#   7]+0.033*[#   8]
    |psi|^2 = 0.996
==== e(   2) =     3.27408 eV ==== 
     psi = 0.133*[#   1]+0.133*[#   5]+0.120*[#   2]+0.120*[#   3]+0.120*[#   4]
          +0.120*[#   6]+0.120*[#   7]+0.120*[#   8]
    |psi|^2 = 0.984
==== e(   3) =     4.83084 eV ==== 
     psi = 0.154*[#   2]+0.154*[#   3]+0.154*[#   4]+0.154*[#   6]+0.154*[#   7]
          +0.154*[#   8]+0.028*[#   1]+0.028*[#   5]
    |psi|^2 = 0.982
==== e(   4) =     5.86531 eV ==== 
     psi = 0.163*[#   2]+0.163*[#   3]+0.163*[#   4]+0.163*[#   6]+0.163*[#   7]
          +0.163*[#   8]
    |psi|^2 = 0.976
==== e(   5) =     8.93753 eV ==== 
     psi = 0.179*[#   1]+0.179*[#   5]+0.097*[#   2]+0.097*[#   3]+0.097*[#   4]
          +0.097*[#   6]+0.097*[#   7]+0.097*[#   8]
    |psi|^2 = 0.944
==== e(   6) =     9.38762 eV ==== 
     psi = 0.157*[#   2]+0.157*[#   3]+0.157*[#   4]+0.157*[#   6]+0.157*[#   7]
          +0.157*[#   8]
    |psi|^2 = 0.944
==== e(   7) =     9.75153 eV ==== 
     psi = 0.140*[#   2]+0.140*[#   3]+0.140*[#   4]+0.140*[#   6]+0.140*[#   7]
          +0.140*[#   8]+0.033*[#   1]+0.033*[#   5]
    |psi|^2 = 0.908
==== e(   8) =    11.96416 eV ==== 
     psi = 0.172*[#   1]+0.172*[#   5]+0.073*[#   2]+0.073*[#   3]+0.073*[#   4]
          +0.073*[#   6]+0.073*[#   7]+0.073*[#   8]
    |psi|^2 = 0.780
==== e(   9) =    12.66820 eV ==== 
     psi = 0.001*[#   2]+0.001*[#   3]+0.001*[#   4]+0.001*[#   6]+0.001*[#   7]
          +0.001*[#   8]
    |psi|^2 = 0.009
==== e(  10) =    14.15551 eV ==== 
     psi = 0.037*[#   1]+0.037*[#   5]+0.017*[#   2]+0.017*[#   3]+0.017*[#   4]
          +0.017*[#   6]+0.017*[#   7]+0.017*[#   8]
    |psi|^2 = 0.177
==== e(  11) =    15.82794 eV ==== 
     psi = 0.002*[#   2]+0.002*[#   3]+0.002*[#   4]+0.002*[#   6]+0.002*[#   7]
          +0.002*[#   8]+0.002*[#   1]+0.002*[#   5]
    |psi|^2 = 0.019
==== e(  12) =    17.34717 eV ==== 
     psi = 0.005*[#   1]+0.005*[#   5]
    |psi|^2 = 0.011
==== e(  13) =    19.07747 eV ==== 
     psi = 0.003*[#   2]+0.003*[#   3]+0.003*[#   4]+0.003*[#   6]+0.003*[#   7]
          +0.003*[#   8]
    |psi|^2 = 0.021
==== e(  14) =    20.72847 eV ==== 
     psi = 0.002*[#   2]+0.002*[#   3]+0.002*[#   4]+0.002*[#   6]+0.002*[#   7]
          +0.002*[#   8]
    |psi|^2 = 0.013
==== e(  15) =    23.95398 eV ==== 
     psi = 0.006*[#   2]+0.006*[#   3]+0.006*[#   4]+0.006*[#   6]+0.006*[#   7]
          +0.006*[#   8]+0.003*[#   1]+0.003*[#   5]
    |psi|^2 = 0.044
==== e(  16) =    24.42031 eV ==== 
     psi = 0.005*[#   2]+0.005*[#   3]+0.005*[#   4]+0.005*[#   6]+0.005*[#   7]
          +0.005*[#   8]+0.002*[#   1]+0.002*[#   5]
    |psi|^2 = 0.033

 k =   0.1666666667 -0.0000000000  0.1666666667
==== e(   1) =    -5.50685 eV ==== 
     psi = 0.443*[#   1]+0.443*[#   5]+0.018*[#   2]+0.018*[#   3]+0.018*[#   4]
          +0.018*[#   6]+0.018*[#   7]+0.018*[#   8]
    |psi|^2 = 0.996
==== e(   2) =     4.62878 eV ==== 
     psi = 0.130*[#   2]+0.130*[#   3]+0.130*[#   4]+0.130*[#   6]+0.130*[#   7]
          +0.130*[#   8]+0.100*[#   1]+0.100*[#   5]
    |psi|^2 = 0.977
==== e(   3) =     5.35377 eV ==== 
     psi = 0.159*[#   2]+0.159*[#   3]+0.159*[#   4]+0.159*[#   6]+0.159*[#   7]
          +0.159*[#   8]+0.012*[#   1]+0.012*[#   5]
    |psi|^2 = 0.977
==== e(   4) =     6.10145 eV ==== 
     psi = 0.161*[#   2]+0.161*[#   3]+0.161*[#   4]+0.161*[#   6]+0.161*[#   7]
          +0.161*[#   8]
    |psi|^2 = 0.968
==== e(   5) =     9.02943 eV ==== 
     psi = 0.160*[#   2]+0.160*[#   3]+0.160*[#   4]+0.160*[#   6]+0.160*[#   7]
          +0.160*[#   8]
    |psi|^2 = 0.960
==== e(   6) =     9.15141 eV ==== 
     psi = 0.129*[#   1]+0.129*[#   5]+0.117*[#   2]+0.117*[#   3]+0.117*[#   4]
          +0.117*[#   6]+0.117*[#   7]+0.117*[#   8]
    |psi|^2 = 0.961
==== e(   7) =     9.18777 eV ==== 
     psi = 0.143*[#   2]+0.143*[#   3]+0.143*[#   4]+0.143*[#   6]+0.143*[#   7]
          +0.143*[#   8]+0.040*[#   1]+0.040*[#   5]
    |psi|^2 = 0.935
==== e(   8) =    11.04839 eV ==== 
     psi = 0.259*[#   1]+0.259*[#   5]+0.072*[#   2]+0.072*[#   3]+0.072*[#   4]
          +0.072*[#   6]+0.072*[#   7]+0.072*[#   8]
    |psi|^2 = 0.950
==== e(   9) =    13.05024 eV ==== 

    |psi|^2 = 0.004
==== e(  10) =    13.79641 eV ==== 
     psi = 0.006*[#   1]+0.006*[#   5]+0.001*[#   2]+0.001*[#   3]+0.001*[#   4]
          +0.001*[#   6]+0.001*[#   7]+0.001*[#   8]
    |psi|^2 = 0.020
==== e(  11) =    15.13492 eV ==== 
     psi = 0.002*[#   1]+0.002*[#   5]
    |psi|^2 = 0.007
==== e(  12) =    17.30952 eV ==== 
     psi = 0.002*[#   1]+0.002*[#   5]+0.002*[#   2]+0.002*[#   3]+0.002*[#   4]
          +0.002*[#   6]+0.002*[#   7]+0.002*[#   8]
    |psi|^2 = 0.015
==== e(  13) =    17.93286 eV ==== 
     psi = 0.004*[#   2]+0.004*[#   3]+0.004*[#   4]+0.004*[#   6]+0.004*[#   7]
          +0.004*[#   8]
    |psi|^2 = 0.022
==== e(  14) =    19.20274 eV ==== 
     psi = 0.003*[#   2]+0.003*[#   3]+0.003*[#   4]+0.003*[#   6]+0.003*[#   7]
          +0.003*[#   8]
    |psi|^2 = 0.015
==== e(  15) =    23.09889 eV ==== 
     psi = 0.004*[#   1]+0.004*[#   5]+0.002*[#   2]+0.002*[#   3]+0.002*[#   4]
          +0.002*[#   6]+0.002*[#   7]+0.002*[#   8]
    |psi|^2 = 0.016
==== e(  16) =    26.20409 eV ==== 
     psi = 0.005*[#   2]+0.005*[#   3]+0.005*[#   4]+0.005*[#   6]+0.005*[#   7]
          +0.005*[#   8]+0.001*[#   1]+0.001*[#   5]
    |psi|^2 = 0.030

 k =   0.0000000000  0.3333333333  0.0000000000
==== e(   1) =    -5.26459 eV ==== 
     psi = 0.406*[#   1]+0.406*[#   5]+0.031*[#   2]+0.031*[#   3]+0.031*[#   4]
          +0.031*[#   6]+0.031*[#   7]+0.031*[#   8]
    |psi|^2 = 0.996
==== e(   2) =     4.18090 eV ==== 
     psi = 0.168*[#   1]+0.168*[#   5]+0.107*[#   2]+0.107*[#   3]+0.107*[#   4]
          +0.107*[#   6]+0.107*[#   7]+0.107*[#   8]
    |psi|^2 = 0.978
==== e(   3) =     5.02375 eV ==== 
     psi = 0.164*[#   2]+0.164*[#   3]+0.164*[#   4]+0.164*[#   6]+0.164*[#   7]
          +0.164*[#   8]
    |psi|^2 = 0.983
==== e(   4) =     5.02375 eV ==== 
     psi = 0.164*[#   2]+0.164*[#   3]+0.164*[#   4]+0.164*[#   6]+0.164*[#   7]
          +0.164*[#   8]
    |psi|^2 = 0.983
==== e(   5) =     7.92219 eV ==== 
     psi = 0.130*[#   2]+0.130*[#   3]+0.130*[#   4]+0.130*[#   6]+0.130*[#   7]
          +0.130*[#   8]+0.088*[#   1]+0.088*[#   5]
    |psi|^2 = 0.958
==== e(   6) =    10.52256 eV ==== 
     psi = 0.203*[#   1]+0.203*[#   5]+0.043*[#   2]+0.043*[#   3]+0.043*[#   4]
          +0.043*[#   6]+0.043*[#   7]+0.043*[#   8]
    |psi|^2 = 0.666
==== e(   7) =    10.56534 eV ==== 
     psi = 0.152*[#   2]+0.152*[#   3]+0.152*[#   4]+0.152*[#   6]+0.152*[#   7]
          +0.152*[#   8]
    |psi|^2 = 0.915
==== e(   8) =    10.56534 eV ==== 
     psi = 0.152*[#   2]+0.152*[#   3]+0.152*[#   4]+0.152*[#   6]+0.152*[#   7]
          +0.152*[#   8]
    |psi|^2 = 0.915
==== e(   9) =    12.83893 eV ==== 
     psi = 0.125*[#   1]+0.125*[#   5]+0.013*[#   2]+0.013*[#   3]+0.013*[#   4]
          +0.013*[#   6]+0.013*[#   7]+0.013*[#   8]
    |psi|^2 = 0.327
==== e(  10) =    14.48623 eV ==== 

    |psi|^2 = 0.000
==== e(  11) =    15.98790 eV ==== 
     psi = 0.001*[#   1]+0.001*[#   5]
    |psi|^2 = 0.004
==== e(  12) =    18.30971 eV ==== 
     psi = 0.004*[#   2]+0.004*[#   3]+0.004*[#   4]+0.004*[#   6]+0.004*[#   7]
          +0.004*[#   8]
    |psi|^2 = 0.023
==== e(  13) =    18.30971 eV ==== 
     psi = 0.004*[#   2]+0.004*[#   3]+0.004*[#   4]+0.004*[#   6]+0.004*[#   7]
          +0.004*[#   8]
    |psi|^2 = 0.023
==== e(  14) =    18.89306 eV ==== 
     psi = 0.002*[#   1]+0.002*[#   5]
    |psi|^2 = 0.006
==== e(  15) =    24.62938 eV ==== 
     psi = 0.002*[#   1]+0.002*[#   5]+0.002*[#   2]+0.002*[#   3]+0.002*[#   4]
          +0.002*[#   6]+0.002*[#   7]+0.002*[#   8]
    |psi|^2 = 0.014
==== e(  16) =    25.69388 eV ==== 
     psi = 0.008*[#   2]+0.008*[#   3]+0.008*[#   4]+0.008*[#   6]+0.008*[#   7]
          +0.008*[#   8]
    |psi|^2 = 0.050

 k =  -0.0833333333  0.4166666667 -0.0833333333
==== e(   1) =    -4.93725 eV ==== 
     psi = 0.375*[#   1]+0.375*[#   5]+0.041*[#   2]+0.041*[#   3]+0.041*[#   4]
          +0.041*[#   6]+0.041*[#   7]+0.041*[#   8]
    |psi|^2 = 0.995
==== e(   2) =     3.09211 eV ==== 
     psi = 0.173*[#   1]+0.173*[#   5]+0.106*[#   2]+0.106*[#   3]+0.106*[#   4]
          +0.106*[#   6]+0.106*[#   7]+0.106*[#   8]
    |psi|^2 = 0.984
==== e(   3) =     4.67650 eV ==== 
     psi = 0.153*[#   2]+0.153*[#   3]+0.153*[#   4]+0.153*[#   6]+0.153*[#   7]
          +0.153*[#   8]+0.033*[#   1]+0.033*[#   5]
    |psi|^2 = 0.985
==== e(   4) =     4.68881 eV ==== 
     psi = 0.164*[#   2]+0.164*[#   3]+0.164*[#   4]+0.164*[#   6]+0.164*[#   7]
          +0.164*[#   8]
    |psi|^2 = 0.986
==== e(   5) =     7.94251 eV ==== 
     psi = 0.125*[#   2]+0.125*[#   3]+0.125*[#   4]+0.125*[#   6]+0.125*[#   7]
          +0.125*[#   8]+0.097*[#   1]+0.097*[#   5]
    |psi|^2 = 0.945
==== e(   6) =    10.11813 eV ==== 
     psi = 0.160*[#   1]+0.160*[#   5]+0.050*[#   2]+0.050*[#   3]+0.050*[#   4]
          +0.050*[#   6]+0.050*[#   7]+0.050*[#   8]
    |psi|^2 = 0.620
==== e(   7) =    10.90343 eV ==== 
     psi = 0.120*[#   2]+0.120*[#   3]+0.120*[#   4]+0.120*[#   6]+0.120*[#   7]
          +0.120*[#   8]+0.009*[#   1]+0.009*[#   5]
    |psi|^2 = 0.739
==== e(   8) =    11.12895 eV ==== 
     psi = 0.147*[#   2]+0.147*[#   3]+0.147*[#   4]+0.147*[#   6]+0.147*[#   7]
          +0.147*[#   8]
    |psi|^2 = 0.880
==== e(   9) =    13.82806 eV ==== 
     psi = 0.139*[#   1]+0.139*[#   5]+0.041*[#   2]+0.041*[#   3]+0.041*[#   4]
          +0.041*[#   6]+0.041*[#   7]+0.041*[#   8]
    |psi|^2 = 0.523
==== e(  10) =    14.71446 eV ==== 
     psi = 0.002*[#   2]+0.002*[#   3]+0.002*[#   4]+0.002*[#   6]+0.002*[#   7]
          +0.002*[#   8]
    |psi|^2 = 0.012
==== e(  11) =    16.74566 eV ==== 
     psi = 0.002*[#   1]+0.002*[#   2]+0.002*[#   3]+0.002*[#   4]+0.002*[#   5]
          +0.002*[#   6]+0.002*[#   7]+0.002*[#   8]
    |psi|^2 = 0.013
==== e(  12) =    18.16940 eV ==== 
     psi = 0.002*[#   1]+0.002*[#   5]
    |psi|^2 = 0.009
==== e(  13) =    19.12524 eV ==== 
     psi = 0.004*[#   2]+0.004*[#   3]+0.004*[#   4]+0.004*[#   6]+0.004*[#   7]
          +0.004*[#   8]
    |psi|^2 = 0.027
==== e(  14) =    20.31493 eV ==== 
     psi = 0.002*[#   2]+0.002*[#   3]+0.002*[#   4]+0.002*[#   6]+0.002*[#   7]
          +0.002*[#   8]
    |psi|^2 = 0.015
==== e(  15) =    23.82040 eV ==== 
     psi = 0.008*[#   2]+0.008*[#   3]+0.008*[#   4]+0.008*[#   6]+0.008*[#   7]
          +0.008*[#   8]
    |psi|^2 = 0.047
==== e(  16) =    24.22997 eV ==== 
     psi = 0.010*[#   2]+0.010*[#   3]+0.010*[#   4]+0.010*[#   6]+0.010*[#   7]
          +0.010*[#   8]+0.002*[#   1]+0.002*[#   5]
    |psi|^2 = 0.066

 k =  -0.1666666667  0.5000000000 -0.1666666667
==== e(   1) =    -4.44885 eV ==== 
     psi = 0.350*[#   1]+0.350*[#   5]+0.049*[#   2]+0.049*[#   3]+0.049*[#   4]
          +0.049*[#   6]+0.049*[#   7]+0.049*[#   8]
    |psi|^2 = 0.995
==== e(   2) =     1.77974 eV ==== 
     psi = 0.179*[#   1]+0.179*[#   5]+0.105*[#   2]+0.105*[#   3]+0.105*[#   4]
          +0.105*[#   6]+0.105*[#   7]+0.105*[#   8]
    |psi|^2 = 0.988
==== e(   3) =     4.22365 eV ==== 
     psi = 0.145*[#   2]+0.145*[#   3]+0.145*[#   4]+0.145*[#   6]+0.145*[#   7]
          +0.145*[#   8]+0.058*[#   1]+0.058*[#   5]
    |psi|^2 = 0.988
==== e(   4) =     4.46985 eV ==== 
     psi = 0.165*[#   2]+0.165*[#   3]+0.165*[#   4]+0.165*[#   6]+0.165*[#   7]
          +0.165*[#   8]
    |psi|^2 = 0.988
==== e(   5) =     8.18370 eV ==== 
     psi = 0.114*[#   2]+0.114*[#   3]+0.114*[#   4]+0.114*[#   6]+0.114*[#   7]
          +0.114*[#   8]+0.106*[#   1]+0.106*[#   5]
    |psi|^2 = 0.894
==== e(   6) =    10.28692 eV ==== 
     psi = 0.152*[#   1]+0.152*[#   5]+0.065*[#   2]+0.065*[#   3]+0.065*[#   4]
          +0.065*[#   6]+0.065*[#   7]+0.065*[#   8]
    |psi|^2 = 0.695
==== e(   7) =    10.74617 eV ==== 
     psi = 0.093*[#   2]+0.093*[#   3]+0.093*[#   4]+0.093*[#   6]+0.093*[#   7]
          +0.093*[#   8]+0.029*[#   1]+0.029*[#   5]
    |psi|^2 = 0.618
==== e(   8) =    11.29624 eV ==== 
     psi = 0.134*[#   2]+0.134*[#   3]+0.134*[#   4]+0.134*[#   6]+0.134*[#   7]
          +0.134*[#   8]
    |psi|^2 = 0.805
==== e(   9) =    15.29819 eV ==== 
     psi = 0.009*[#   2]+0.009*[#   3]+0.009*[#   4]+0.009*[#   6]+0.009*[#   7]
          +0.009*[#   8]
    |psi|^2 = 0.056
==== e(  10) =    15.36354 eV ==== 
     psi = 0.100*[#   1]+0.100*[#   5]+0.057*[#   2]+0.057*[#   3]+0.057*[#   4]
          +0.057*[#   6]+0.057*[#   7]+0.057*[#   8]
    |psi|^2 = 0.540
==== e(  11) =    16.65504 eV ==== 
     psi = 0.004*[#   1]+0.004*[#   5]+0.002*[#   2]+0.002*[#   3]+0.002*[#   4]
          +0.002*[#   6]+0.002*[#   7]+0.002*[#   8]
    |psi|^2 = 0.020
==== e(  12) =    19.11813 eV ==== 
     psi = 0.006*[#   1]+0.006*[#   5]+0.002*[#   2]+0.002*[#   3]+0.002*[#   4]
          +0.002*[#   6]+0.002*[#   7]+0.002*[#   8]
    |psi|^2 = 0.027
==== e(  13) =    19.95664 eV ==== 
     psi = 0.012*[#   2]+0.012*[#   3]+0.012*[#   4]+0.012*[#   6]+0.012*[#   7]
          +0.012*[#   8]
    |psi|^2 = 0.071
==== e(  14) =    21.51082 eV ==== 
     psi = 0.010*[#   2]+0.010*[#   3]+0.010*[#   4]+0.010*[#   6]+0.010*[#   7]
          +0.010*[#   8]+0.004*[#   1]+0.004*[#   5]
    |psi|^2 = 0.065
==== e(  15) =    22.26707 eV ==== 
     psi = 0.004*[#   2]+0.004*[#   3]+0.004*[#   4]+0.004*[#   6]+0.004*[#   7]
          +0.004*[#   8]
    |psi|^2 = 0.022
==== e(  16) =    23.26295 eV ==== 
     psi = 0.005*[#   2]+0.005*[#   3]+0.005*[#   4]+0.005*[#   6]+0.005*[#   7]
          +0.005*[#   8]+0.004*[#   1]+0.004*[#   5]
    |psi|^2 = 0.038

 k =  -0.2500000000  0.5833333333 -0.2500000000
==== e(   1) =    -3.84058 eV ==== 
     psi = 0.341*[#   1]+0.341*[#   5]+0.052*[#   2]+0.052*[#   3]+0.052*[#   4]
          +0.052*[#   6]+0.052*[#   7]+0.052*[#   8]
    |psi|^2 = 0.995
==== e(   2) =     0.54358 eV ==== 
     psi = 0.178*[#   1]+0.178*[#   5]+0.106*[#   2]+0.106*[#   3]+0.106*[#   4]
          +0.106*[#   6]+0.106*[#   7]+0.106*[#   8]
    |psi|^2 = 0.990
==== e(   3) =     3.78395 eV ==== 
     psi = 0.143*[#   2]+0.143*[#   3]+0.143*[#   4]+0.143*[#   6]+0.143*[#   7]
          +0.143*[#   8]+0.067*[#   1]+0.067*[#   5]
    |psi|^2 = 0.990
==== e(   4) =     4.38581 eV ==== 
     psi = 0.165*[#   2]+0.165*[#   3]+0.165*[#   4]+0.165*[#   6]+0.165*[#   7]
          +0.165*[#   8]
    |psi|^2 = 0.989
==== e(   5) =     8.22929 eV ==== 
     psi = 0.122*[#   1]+0.122*[#   5]+0.100*[#   2]+0.100*[#   3]+0.100*[#   4]
          +0.100*[#   6]+0.100*[#   7]+0.100*[#   8]
    |psi|^2 = 0.843
==== e(   6) =    10.48013 eV ==== 
     psi = 0.102*[#   2]+0.102*[#   3]+0.102*[#   4]+0.102*[#   6]+0.102*[#   7]
          +0.102*[#   8]+0.101*[#   1]+0.101*[#   5]
    |psi|^2 = 0.811
==== e(   7) =    11.11532 eV ==== 
     psi = 0.124*[#   2]+0.124*[#   3]+0.124*[#   4]+0.124*[#   6]+0.124*[#   7]
          +0.124*[#   8]
    |psi|^2 = 0.745
==== e(   8) =    11.27368 eV ==== 
     psi = 0.080*[#   1]+0.080*[#   5]+0.054*[#   2]+0.054*[#   3]+0.054*[#   4]
          +0.054*[#   6]+0.054*[#   7]+0.054*[#   8]
    |psi|^2 = 0.484
==== e(   9) =    16.12664 eV ==== 
     psi = 0.016*[#   2]+0.016*[#   3]+0.016*[#   4]+0.016*[#   6]+0.016*[#   7]
          +0.016*[#   8]+0.011*[#   1]+0.011*[#   5]
    |psi|^2 = 0.116
==== e(  10) =    16.41612 eV ==== 
     psi = 0.011*[#   2]+0.011*[#   3]+0.011*[#   4]+0.011*[#   6]+0.011*[#   7]
          +0.011*[#   8]
    |psi|^2 = 0.069
==== e(  11) =    17.06931 eV ==== 
     psi = 0.062*[#   1]+0.062*[#   5]+0.040*[#   2]+0.040*[#   3]+0.040*[#   4]
          +0.040*[#   6]+0.040*[#   7]+0.040*[#   8]
    |psi|^2 = 0.365
==== e(  12) =    18.70416 eV ==== 
     psi = 0.022*[#   2]+0.022*[#   3]+0.022*[#   4]+0.022*[#   6]+0.022*[#   7]
          +0.022*[#   8]
    |psi|^2 = 0.133
==== e(  13) =    19.47995 eV ==== 
     psi = 0.026*[#   2]+0.026*[#   3]+0.026*[#   4]+0.026*[#   6]+0.026*[#   7]
          +0.026*[#   8]+0.023*[#   1]+0.023*[#   5]
    |psi|^2 = 0.200
==== e(  14) =    21.71112 eV ==== 
     psi = 0.004*[#   1]+0.004*[#   5]+0.002*[#   2]+0.002*[#   3]+0.002*[#   4]
          +0.002*[#   6]+0.002*[#   7]+0.002*[#   8]
    |psi|^2 = 0.022
==== e(  15) =    23.28720 eV ==== 

    |psi|^2 = 0.001
==== e(  16) =    24.33746 eV ==== 
     psi = 0.012*[#   2]+0.012*[#   3]+0.012*[#   4]+0.012*[#   6]+0.012*[#   7]
          +0.012*[#   8]+0.003*[#   1]+0.003*[#   5]
    |psi|^2 = 0.077

 k =   0.6666666667 -0.3333333333  0.6666666667
==== e(   1) =    -3.25646 eV ==== 
     psi = 0.353*[#   1]+0.353*[#   5]+0.048*[#   2]+0.048*[#   3]+0.048*[#   4]
          +0.048*[#   6]+0.048*[#   7]+0.048*[#   8]
    |psi|^2 = 0.996
==== e(   2) =    -0.39180 eV ==== 
     psi = 0.160*[#   1]+0.160*[#   5]+0.112*[#   2]+0.112*[#   3]+0.112*[#   4]
          +0.112*[#   6]+0.112*[#   7]+0.112*[#   8]
    |psi|^2 = 0.989
==== e(   3) =     3.43891 eV ==== 
     psi = 0.143*[#   2]+0.143*[#   3]+0.143*[#   4]+0.143*[#   6]+0.143*[#   7]
          +0.143*[#   8]+0.068*[#   1]+0.068*[#   5]
    |psi|^2 = 0.991
==== e(   4) =     4.43970 eV ==== 
     psi = 0.165*[#   2]+0.165*[#   3]+0.165*[#   4]+0.165*[#   6]+0.165*[#   7]
          +0.165*[#   8]
    |psi|^2 = 0.990
==== e(   5) =     8.26088 eV ==== 
     psi = 0.132*[#   1]+0.132*[#   5]+0.095*[#   2]+0.095*[#   3]+0.095*[#   4]
          +0.095*[#   6]+0.095*[#   7]+0.095*[#   8]
    |psi|^2 = 0.832
==== e(   6) =    10.33781 eV ==== 
     psi = 0.106*[#   1]+0.106*[#   5]+0.091*[#   2]+0.091*[#   3]+0.091*[#   4]
          +0.091*[#   6]+0.091*[#   7]+0.091*[#   8]
    |psi|^2 = 0.756
==== e(   7) =    10.84186 eV ==== 
     psi = 0.121*[#   2]+0.121*[#   3]+0.121*[#   4]+0.121*[#   6]+0.121*[#   7]
          +0.121*[#   8]
    |psi|^2 = 0.724
==== e(   8) =    12.64448 eV ==== 
     psi = 0.068*[#   1]+0.068*[#   5]+0.053*[#   2]+0.053*[#   3]+0.053*[#   4]
          +0.053*[#   6]+0.053*[#   7]+0.053*[#   8]
    |psi|^2 = 0.455
==== e(   9) =    15.65066 eV ==== 
     psi = 0.021*[#   1]+0.021*[#   5]+0.019*[#   2]+0.019*[#   3]+0.019*[#   4]
          +0.019*[#   6]+0.019*[#   7]+0.019*[#   8]
    |psi|^2 = 0.154
==== e(  10) =    16.70391 eV ==== 
     psi = 0.014*[#   2]+0.014*[#   3]+0.014*[#   4]+0.014*[#   6]+0.014*[#   7]
          +0.014*[#   8]
    |psi|^2 = 0.083
==== e(  11) =    18.00762 eV ==== 
     psi = 0.020*[#   1]+0.020*[#   5]+0.009*[#   2]+0.009*[#   3]+0.009*[#   4]
          +0.009*[#   6]+0.009*[#   7]+0.009*[#   8]
    |psi|^2 = 0.093
==== e(  12) =    18.05783 eV ==== 
     psi = 0.023*[#   2]+0.023*[#   3]+0.023*[#   4]+0.023*[#   6]+0.023*[#   7]
          +0.023*[#   8]
    |psi|^2 = 0.137
==== e(  13) =    18.91102 eV ==== 
     psi = 0.060*[#   2]+0.060*[#   3]+0.060*[#   4]+0.060*[#   6]+0.060*[#   7]
          +0.060*[#   8]+0.050*[#   1]+0.050*[#   5]
    |psi|^2 = 0.459
==== e(  14) =    22.35172 eV ==== 
     psi = 0.023*[#   2]+0.023*[#   3]+0.023*[#   4]+0.023*[#   6]+0.023*[#   7]
          +0.023*[#   8]+0.007*[#   1]+0.007*[#   5]
    |psi|^2 = 0.153
==== e(  15) =    24.20002 eV ==== 
     psi = 0.007*[#   1]+0.007*[#   5]+0.003*[#   2]+0.003*[#   3]+0.003*[#   4]
          +0.003*[#   6]+0.003*[#   7]+0.003*[#   8]
    |psi|^2 = 0.031
==== e(  16) =    25.23087 eV ==== 

    |psi|^2 = 0.006

 k =   0.5833333333 -0.2500000000  0.5833333333
==== e(   1) =    -3.14185 eV ==== 
     psi = 0.360*[#   1]+0.360*[#   5]+0.046*[#   2]+0.046*[#   3]+0.046*[#   4]
          +0.046*[#   6]+0.046*[#   7]+0.046*[#   8]
    |psi|^2 = 0.997
==== e(   2) =    -0.55187 eV ==== 
     psi = 0.151*[#   1]+0.151*[#   5]+0.114*[#   2]+0.114*[#   3]+0.114*[#   4]
          +0.114*[#   6]+0.114*[#   7]+0.114*[#   8]
    |psi|^2 = 0.989
==== e(   3) =     3.22462 eV ==== 
     psi = 0.143*[#   2]+0.143*[#   3]+0.143*[#   4]+0.143*[#   6]+0.143*[#   7]
          +0.143*[#   8]+0.065*[#   1]+0.065*[#   5]
    |psi|^2 = 0.991
==== e(   4) =     4.62398 eV ==== 
     psi = 0.165*[#   2]+0.165*[#   3]+0.165*[#   4]+0.165*[#   6]+0.165*[#   7]
          +0.165*[#   8]
    |psi|^2 = 0.989
==== e(   5) =     8.40588 eV ==== 
     psi = 0.136*[#   1]+0.136*[#   5]+0.094*[#   2]+0.094*[#   3]+0.094*[#   4]
          +0.094*[#   6]+0.094*[#   7]+0.094*[#   8]
    |psi|^2 = 0.838
==== e(   6) =    10.29061 eV ==== 
     psi = 0.107*[#   1]+0.107*[#   5]+0.088*[#   2]+0.088*[#   3]+0.088*[#   4]
          +0.088*[#   6]+0.088*[#   7]+0.088*[#   8]
    |psi|^2 = 0.741
==== e(   7) =    10.61491 eV ==== 
     psi = 0.122*[#   2]+0.122*[#   3]+0.122*[#   4]+0.122*[#   6]+0.122*[#   7]
          +0.122*[#   8]
    |psi|^2 = 0.732
==== e(   8) =    14.20125 eV ==== 
     psi = 0.049*[#   1]+0.049*[#   5]+0.043*[#   2]+0.043*[#   3]+0.043*[#   4]
          +0.043*[#   6]+0.043*[#   7]+0.043*[#   8]
    |psi|^2 = 0.355
==== e(   9) =    14.78219 eV ==== 
     psi = 0.055*[#   1]+0.055*[#   5]+0.039*[#   2]+0.039*[#   3]+0.039*[#   4]
          +0.039*[#   6]+0.039*[#   7]+0.039*[#   8]
    |psi|^2 = 0.340
==== e(  10) =    15.01246 eV ==== 
     psi = 0.023*[#   2]+0.023*[#   3]+0.023*[#   4]+0.023*[#   6]+0.023*[#   7]
          +0.023*[#   8]
    |psi|^2 = 0.136
==== e(  11) =    17.39864 eV ==== 
     psi = 0.018*[#   1]+0.018*[#   5]+0.014*[#   2]+0.014*[#   3]+0.014*[#   4]
          +0.014*[#   6]+0.014*[#   7]+0.014*[#   8]
    |psi|^2 = 0.121
==== e(  12) =    19.75887 eV ==== 
     psi = 0.013*[#   2]+0.013*[#   3]+0.013*[#   4]+0.013*[#   6]+0.013*[#   7]
          +0.013*[#   8]
    |psi|^2 = 0.077
==== e(  13) =    20.36488 eV ==== 
     psi = 0.019*[#   1]+0.019*[#   5]+0.015*[#   2]+0.015*[#   3]+0.015*[#   4]
          +0.015*[#   6]+0.015*[#   7]+0.015*[#   8]
    |psi|^2 = 0.128
==== e(  14) =    20.83010 eV ==== 
     psi = 0.057*[#   2]+0.057*[#   3]+0.057*[#   4]+0.057*[#   6]+0.057*[#   7]
          +0.057*[#   8]+0.021*[#   1]+0.021*[#   5]
    |psi|^2 = 0.386
==== e(  15) =    23.99745 eV ==== 
     psi = 0.005*[#   1]+0.005*[#   5]
    |psi|^2 = 0.015
==== e(  16) =    26.15593 eV ==== 
     psi = 0.004*[#   1]+0.004*[#   5]+0.001*[#   2]+0.001*[#   3]+0.001*[#   4]
          +0.001*[#   6]+0.001*[#   7]+0.001*[#   8]
    |psi|^2 = 0.015

 k =   0.5000000000 -0.1666666667  0.5000000000
==== e(   1) =    -3.64180 eV ==== 
     psi = 0.345*[#   1]+0.345*[#   5]+0.051*[#   2]+0.051*[#   3]+0.051*[#   4]
          +0.051*[#   6]+0.051*[#   7]+0.051*[#   8]
    |psi|^2 = 0.996
==== e(   2) =     0.20808 eV ==== 
     psi = 0.171*[#   1]+0.171*[#   5]+0.108*[#   2]+0.108*[#   3]+0.108*[#   4]
          +0.108*[#   6]+0.108*[#   7]+0.108*[#   8]
    |psi|^2 = 0.990
==== e(   3) =     3.16774 eV ==== 
     psi = 0.145*[#   2]+0.145*[#   3]+0.145*[#   4]+0.145*[#   6]+0.145*[#   7]
          +0.145*[#   8]+0.061*[#   1]+0.061*[#   5]
    |psi|^2 = 0.990
==== e(   4) =     4.91957 eV ==== 
     psi = 0.165*[#   2]+0.165*[#   3]+0.165*[#   4]+0.165*[#   6]+0.165*[#   7]
          +0.165*[#   8]
    |psi|^2 = 0.988
==== e(   5) =     8.67127 eV ==== 
     psi = 0.137*[#   1]+0.137*[#   5]+0.097*[#   2]+0.097*[#   3]+0.097*[#   4]
          +0.097*[#   6]+0.097*[#   7]+0.097*[#   8]
    |psi|^2 = 0.854
==== e(   6) =    10.34522 eV ==== 
     psi = 0.096*[#   1]+0.096*[#   5]+0.092*[#   2]+0.092*[#   3]+0.092*[#   4]
          +0.092*[#   6]+0.092*[#   7]+0.092*[#   8]
    |psi|^2 = 0.740
==== e(   7) =    10.44849 eV ==== 
     psi = 0.130*[#   2]+0.130*[#   3]+0.130*[#   4]+0.130*[#   6]+0.130*[#   7]
          +0.130*[#   8]
    |psi|^2 = 0.781
==== e(   8) =    13.51736 eV ==== 
     psi = 0.097*[#   1]+0.097*[#   5]+0.061*[#   2]+0.061*[#   3]+0.061*[#   4]
          +0.061*[#   6]+0.061*[#   7]+0.061*[#   8]
    |psi|^2 = 0.559
==== e(   9) =    13.55538 eV ==== 
     psi = 0.020*[#   2]+0.020*[#   3]+0.020*[#   4]+0.020*[#   6]+0.020*[#   7]
          +0.020*[#   8]
    |psi|^2 = 0.119
==== e(  10) =    15.63331 eV ==== 
     psi = 0.024*[#   1]+0.024*[#   5]+0.021*[#   2]+0.021*[#   3]+0.021*[#   4]
          +0.021*[#   6]+0.021*[#   7]+0.021*[#   8]
    |psi|^2 = 0.176
==== e(  11) =    17.69603 eV ==== 
     psi = 0.016*[#   1]+0.016*[#   5]+0.014*[#   2]+0.014*[#   3]+0.014*[#   4]
          +0.014*[#   6]+0.014*[#   7]+0.014*[#   8]
    |psi|^2 = 0.117
==== e(  12) =    19.03015 eV ==== 
     psi = 0.034*[#   2]+0.034*[#   3]+0.034*[#   4]+0.034*[#   6]+0.034*[#   7]
          +0.034*[#   8]+0.026*[#   1]+0.026*[#   5]
    |psi|^2 = 0.255
==== e(  13) =    21.16015 eV ==== 
     psi = 0.014*[#   2]+0.014*[#   3]+0.014*[#   4]+0.014*[#   6]+0.014*[#   7]
          +0.014*[#   8]+0.007*[#   1]+0.007*[#   5]
    |psi|^2 = 0.097
==== e(  14) =    21.61557 eV ==== 
     psi = 0.008*[#   2]+0.008*[#   3]+0.008*[#   4]+0.008*[#   6]+0.008*[#   7]
          +0.008*[#   8]
    |psi|^2 = 0.048
==== e(  15) =    22.54330 eV ==== 
     psi = 0.016*[#   2]+0.016*[#   3]+0.016*[#   4]+0.016*[#   6]+0.016*[#   7]
          +0.016*[#   8]+0.007*[#   1]+0.007*[#   5]
    |psi|^2 = 0.111
==== e(  16) =    24.16303 eV ==== 
     psi = 0.003*[#   2]+0.003*[#   3]+0.003*[#   4]+0.003*[#   6]+0.003*[#   7]
          +0.003*[#   8]+0.002*[#   1]+0.002*[#   5]
    |psi|^2 = 0.020

 k =   0.4166666667 -0.0833333333  0.4166666667
==== e(   1) =    -4.26670 eV ==== 
     psi = 0.349*[#   1]+0.349*[#   5]+0.050*[#   2]+0.050*[#   3]+0.050*[#   4]
          +0.050*[#   6]+0.050*[#   7]+0.050*[#   8]
    |psi|^2 = 0.995
==== e(   2) =     1.35637 eV ==== 
     psi = 0.177*[#   1]+0.177*[#   5]+0.106*[#   2]+0.106*[#   3]+0.106*[#   4]
          +0.106*[#   6]+0.106*[#   7]+0.106*[#   8]
    |psi|^2 = 0.990
==== e(   3) =     3.31202 eV ==== 
     psi = 0.147*[#   2]+0.147*[#   3]+0.147*[#   4]+0.147*[#   6]+0.147*[#   7]
          +0.147*[#   8]+0.052*[#   1]+0.052*[#   5]
    |psi|^2 = 0.989
==== e(   4) =     5.28851 eV ==== 
     psi = 0.164*[#   2]+0.164*[#   3]+0.164*[#   4]+0.164*[#   6]+0.164*[#   7]
          +0.164*[#   8]
    |psi|^2 = 0.985
==== e(   5) =     9.00335 eV ==== 
     psi = 0.135*[#   1]+0.135*[#   5]+0.102*[#   2]+0.102*[#   3]+0.102*[#   4]
          +0.102*[#   6]+0.102*[#   7]+0.102*[#   8]
    |psi|^2 = 0.882
==== e(   6) =    10.21982 eV ==== 
     psi = 0.148*[#   2]+0.148*[#   3]+0.148*[#   4]+0.148*[#   6]+0.148*[#   7]
          +0.148*[#   8]
    |psi|^2 = 0.886
==== e(   7) =    10.40071 eV ==== 
     psi = 0.103*[#   2]+0.103*[#   3]+0.103*[#   4]+0.103*[#   6]+0.103*[#   7]
          +0.103*[#   8]+0.077*[#   1]+0.077*[#   5]
    |psi|^2 = 0.773
==== e(   8) =    12.35645 eV ==== 
     psi = 0.128*[#   1]+0.128*[#   5]+0.063*[#   2]+0.063*[#   3]+0.063*[#   4]
          +0.063*[#   6]+0.063*[#   7]+0.063*[#   8]
    |psi|^2 = 0.635
==== e(   9) =    12.58084 eV ==== 
     psi = 0.007*[#   2]+0.007*[#   3]+0.007*[#   4]+0.007*[#   6]+0.007*[#   7]
          +0.007*[#   8]
    |psi|^2 = 0.040
==== e(  10) =    16.52363 eV ==== 
     psi = 0.012*[#   1]+0.012*[#   5]+0.009*[#   2]+0.009*[#   3]+0.009*[#   4]
          +0.009*[#   6]+0.009*[#   7]+0.009*[#   8]
    |psi|^2 = 0.080
==== e(  11) =    17.32358 eV ==== 
     psi = 0.043*[#   1]+0.043*[#   5]+0.041*[#   2]+0.041*[#   3]+0.041*[#   4]
          +0.041*[#   6]+0.041*[#   7]+0.041*[#   8]
    |psi|^2 = 0.331
==== e(  12) =    18.41754 eV ==== 
     psi = 0.010*[#   1]+0.010*[#   5]+0.008*[#   2]+0.008*[#   3]+0.008*[#   4]
          +0.008*[#   6]+0.008*[#   7]+0.008*[#   8]
    |psi|^2 = 0.068
==== e(  13) =    20.04638 eV ==== 
     psi = 0.006*[#   2]+0.006*[#   3]+0.006*[#   4]+0.006*[#   6]+0.006*[#   7]
          +0.006*[#   8]+0.003*[#   1]+0.003*[#   5]
    |psi|^2 = 0.040
==== e(  14) =    21.63321 eV ==== 
     psi = 0.002*[#   1]+0.002*[#   5]+0.001*[#   2]+0.001*[#   3]+0.001*[#   4]
          +0.001*[#   6]+0.001*[#   7]+0.001*[#   8]
    |psi|^2 = 0.012
==== e(  15) =    23.00759 eV ==== 
     psi = 0.004*[#   2]+0.004*[#   3]+0.004*[#   4]+0.004*[#   6]+0.004*[#   7]
          +0.004*[#   8]
    |psi|^2 = 0.021
==== e(  16) =    24.19121 eV ==== 
     psi = 0.019*[#   2]+0.019*[#   3]+0.019*[#   4]+0.019*[#   6]+0.019*[#   7]
          +0.019*[#   8]+0.002*[#   1]+0.002*[#   5]
    |psi|^2 = 0.118

 k =   0.3333333333  0.0000000000  0.3333333333
==== e(   1) =    -4.79900 eV ==== 
     psi = 0.370*[#   1]+0.370*[#   5]+0.043*[#   2]+0.043*[#   3]+0.043*[#   4]
          +0.043*[#   6]+0.043*[#   7]+0.043*[#   8]
    |psi|^2 = 0.995
==== e(   2) =     2.49953 eV ==== 
     psi = 0.166*[#   1]+0.166*[#   5]+0.109*[#   2]+0.109*[#   3]+0.109*[#   4]
          +0.109*[#   6]+0.109*[#   7]+0.109*[#   8]
    |psi|^2 = 0.987
==== e(   3) =     3.80278 eV ==== 
     psi = 0.151*[#   2]+0.151*[#   3]+0.151*[#   4]+0.151*[#   6]+0.151*[#   7]
          +0.151*[#   8]+0.040*[#   1]+0.040*[#   5]
    |psi|^2 = 0.987
==== e(   4) =     5.65344 eV ==== 
     psi = 0.163*[#   2]+0.163*[#   3]+0.163*[#   4]+0.163*[#   6]+0.163*[#   7]
          +0.163*[#   8]
    |psi|^2 = 0.981
==== e(   5) =     9.25965 eV ==== 
     psi = 0.137*[#   1]+0.137*[#   5]+0.108*[#   2]+0.108*[#   3]+0.108*[#   4]
          +0.108*[#   6]+0.108*[#   7]+0.108*[#   8]
    |psi|^2 = 0.921
==== e(   6) =     9.77597 eV ==== 
     psi = 0.157*[#   2]+0.157*[#   3]+0.157*[#   4]+0.157*[#   6]+0.157*[#   7]
          +0.157*[#   8]
    |psi|^2 = 0.942
==== e(   7) =    10.07058 eV ==== 
     psi = 0.118*[#   2]+0.118*[#   3]+0.118*[#   4]+0.118*[#   6]+0.118*[#   7]
          +0.118*[#   8]+0.074*[#   1]+0.074*[#   5]
    |psi|^2 = 0.856
==== e(   8) =    11.88830 eV ==== 
     psi = 0.136*[#   1]+0.136*[#   5]+0.061*[#   2]+0.061*[#   3]+0.061*[#   4]
          +0.061*[#   6]+0.061*[#   7]+0.061*[#   8]
    |psi|^2 = 0.635
==== e(   9) =    12.33132 eV ==== 

    |psi|^2 = 0.001
==== e(  10) =    15.61657 eV ==== 
     psi = 0.055*[#   1]+0.055*[#   5]+0.036*[#   2]+0.036*[#   3]+0.036*[#   4]
          +0.036*[#   6]+0.036*[#   7]+0.036*[#   8]
    |psi|^2 = 0.329
==== e(  11) =    16.71439 eV ==== 
     psi = 0.005*[#   2]+0.005*[#   3]+0.005*[#   4]+0.005*[#   6]+0.005*[#   7]
          +0.005*[#   8]+0.005*[#   1]+0.005*[#   5]
    |psi|^2 = 0.040
==== e(  12) =    17.73273 eV ==== 
     psi = 0.004*[#   1]+0.004*[#   5]
    |psi|^2 = 0.009
==== e(  13) =    19.60644 eV ==== 
     psi = 0.004*[#   2]+0.004*[#   3]+0.004*[#   4]+0.004*[#   6]+0.004*[#   7]
          +0.004*[#   8]
    |psi|^2 = 0.022
==== e(  14) =    21.84273 eV ==== 
     psi = 0.007*[#   2]+0.007*[#   3]+0.007*[#   4]+0.007*[#   6]+0.007*[#   7]
          +0.007*[#   8]+0.005*[#   1]+0.005*[#   5]
    |psi|^2 = 0.051
==== e(  15) =    22.24462 eV ==== 
     psi = 0.002*[#   2]+0.002*[#   3]+0.002*[#   4]+0.002*[#   6]+0.002*[#   7]
          +0.002*[#   8]
    |psi|^2 = 0.011
==== e(  16) =    24.94034 eV ==== 
     psi = 0.014*[#   2]+0.014*[#   3]+0.014*[#   4]+0.014*[#   6]+0.014*[#   7]
          +0.014*[#   8]
    |psi|^2 = 0.082

 k =   0.0000000000  0.5000000000  0.0000000000
==== e(   1) =    -4.66645 eV ==== 
     psi = 0.354*[#   1]+0.354*[#   5]+0.048*[#   2]+0.048*[#   3]+0.048*[#   4]
          +0.048*[#   6]+0.048*[#   7]+0.048*[#   8]
    |psi|^2 = 0.995
==== e(   2) =     2.70097 eV ==== 
     psi = 0.215*[#   1]+0.215*[#   5]+0.093*[#   2]+0.093*[#   3]+0.093*[#   4]
          +0.093*[#   6]+0.093*[#   7]+0.093*[#   8]
    |psi|^2 = 0.986
==== e(   3) =     4.32584 eV ==== 
     psi = 0.165*[#   2]+0.165*[#   3]+0.165*[#   4]+0.165*[#   6]+0.165*[#   7]
          +0.165*[#   8]
    |psi|^2 = 0.989
==== e(   4) =     4.32584 eV ==== 
     psi = 0.165*[#   2]+0.165*[#   3]+0.165*[#   4]+0.165*[#   6]+0.165*[#   7]
          +0.165*[#   8]
    |psi|^2 = 0.989
==== e(   5) =     7.34805 eV ==== 
     psi = 0.135*[#   1]+0.135*[#   5]+0.113*[#   2]+0.113*[#   3]+0.113*[#   4]
          +0.113*[#   6]+0.113*[#   7]+0.113*[#   8]
    |psi|^2 = 0.947
==== e(   6) =     9.35336 eV ==== 
     psi = 0.124*[#   1]+0.124*[#   5]+0.042*[#   2]+0.042*[#   3]+0.042*[#   4]
          +0.042*[#   6]+0.042*[#   7]+0.042*[#   8]
    |psi|^2 = 0.503
==== e(   7) =    11.97899 eV ==== 
     psi = 0.144*[#   2]+0.144*[#   3]+0.144*[#   4]+0.144*[#   6]+0.144*[#   7]
          +0.144*[#   8]
    |psi|^2 = 0.864
==== e(   8) =    11.97899 eV ==== 
     psi = 0.144*[#   2]+0.144*[#   3]+0.144*[#   4]+0.144*[#   6]+0.144*[#   7]
          +0.144*[#   8]
    |psi|^2 = 0.864
==== e(   9) =    14.28902 eV ==== 
     psi = 0.158*[#   1]+0.158*[#   5]+0.029*[#   2]+0.029*[#   3]+0.029*[#   4]
          +0.029*[#   6]+0.029*[#   7]+0.029*[#   8]
    |psi|^2 = 0.493
==== e(  10) =    15.15835 eV ==== 

    |psi|^2 = 0.000
==== e(  11) =    17.66425 eV ==== 
     psi = 0.001*[#   1]+0.001*[#   5]
    |psi|^2 = 0.004
==== e(  12) =    19.23736 eV ==== 
     psi = 0.005*[#   2]+0.005*[#   3]+0.005*[#   4]+0.005*[#   6]+0.005*[#   7]
          +0.005*[#   8]
    |psi|^2 = 0.031
==== e(  13) =    19.23736 eV ==== 
     psi = 0.005*[#   2]+0.005*[#   3]+0.005*[#   4]+0.005*[#   6]+0.005*[#   7]
          +0.005*[#   8]
    |psi|^2 = 0.031
==== e(  14) =    19.95537 eV ==== 

    |psi|^2 = 0.002
==== e(  15) =    23.64579 eV ==== 
     psi = 0.013*[#   2]+0.013*[#   3]+0.013*[#   4]+0.013*[#   6]+0.013*[#   7]
          +0.013*[#   8]
    |psi|^2 = 0.079
==== e(  16) =    23.64579 eV ==== 
     psi = 0.013*[#   2]+0.013*[#   3]+0.013*[#   4]+0.013*[#   6]+0.013*[#   7]
          +0.013*[#   8]
    |psi|^2 = 0.079

 k =  -0.0833333333  0.5833333333 -0.0833333333
==== e(   1) =    -4.22960 eV ==== 
     psi = 0.335*[#   1]+0.335*[#   5]+0.054*[#   2]+0.054*[#   3]+0.054*[#   4]
          +0.054*[#   6]+0.054*[#   7]+0.054*[#   8]
    |psi|^2 = 0.995
==== e(   2) =     1.78979 eV ==== 
     psi = 0.225*[#   1]+0.225*[#   5]+0.090*[#   2]+0.090*[#   3]+0.090*[#   4]
          +0.090*[#   6]+0.090*[#   7]+0.090*[#   8]
    |psi|^2 = 0.989
[...]
    |psi|^2 = 0.426
==== e(  10) =    16.19878 eV ==== 
     psi = 0.036*[#   1]+0.036*[#   5]+0.031*[#   2]+0.031*[#   3]+0.031*[#   4]
          +0.031*[#   6]+0.031*[#   7]+0.031*[#   8]
    |psi|^2 = 0.258
==== e(  11) =    19.13909 eV ==== 
     psi = 0.010*[#   2]+0.010*[#   3]+0.010*[#   4]+0.010*[#   6]+0.010*[#   7]
          +0.010*[#   8]+0.006*[#   1]+0.006*[#   5]
    |psi|^2 = 0.070
==== e(  12) =    20.07248 eV ==== 
     psi = 0.025*[#   2]+0.025*[#   3]+0.025*[#   4]+0.025*[#   6]+0.025*[#   7]
          +0.025*[#   8]+0.004*[#   1]+0.004*[#   5]
    |psi|^2 = 0.160
==== e(  13) =    21.27643 eV ==== 
     psi = 0.021*[#   2]+0.021*[#   3]+0.021*[#   4]+0.021*[#   6]+0.021*[#   7]
          +0.021*[#   8]+0.010*[#   1]+0.010*[#   5]
    |psi|^2 = 0.145
==== e(  14) =    21.58235 eV ==== 
     psi = 0.009*[#   1]+0.009*[#   5]+0.003*[#   2]+0.003*[#   3]+0.003*[#   4]
          +0.003*[#   6]+0.003*[#   7]+0.003*[#   8]
    |psi|^2 = 0.035
==== e(  15) =    23.32496 eV ==== 
     psi = 0.008*[#   1]+0.008*[#   2]+0.008*[#   3]+0.008*[#   4]+0.008*[#   5]
          +0.008*[#   6]+0.008*[#   7]+0.008*[#   8]
    |psi|^2 = 0.060
==== e(  16) =    24.74700 eV ==== 
     psi = 0.004*[#   2]+0.004*[#   3]+0.004*[#   4]+0.004*[#   6]+0.004*[#   7]
          +0.004*[#   8]+0.001*[#   1]+0.001*[#   5]
    |psi|^2 = 0.028

 k =   0.5000000000 -0.1666666667  0.8333333333
==== e(   1) =    -2.47250 eV ==== 
     psi = 0.333*[#   1]+0.333*[#   5]+0.055*[#   2]+0.055*[#   3]+0.055*[#   4]
          +0.055*[#   6]+0.055*[#   7]+0.055*[#   8]
    |psi|^2 = 0.996
==== e(   2) =    -0.62863 eV ==== 
     psi = 0.228*[#   1]+0.228*[#   5]+0.090*[#   2]+0.090*[#   3]+0.090*[#   4]
          +0.090*[#   6]+0.090*[#   7]+0.090*[#   8]
    |psi|^2 = 0.993
==== e(   3) =     2.20427 eV ==== 
     psi = 0.155*[#   2]+0.155*[#   3]+0.155*[#   4]+0.155*[#   6]+0.155*[#   7]
          +0.155*[#   8]+0.033*[#   1]+0.033*[#   5]
    |psi|^2 = 0.993
==== e(   4) =     3.45315 eV ==== 
     psi = 0.164*[#   2]+0.164*[#   3]+0.164*[#   4]+0.164*[#   6]+0.164*[#   7]
          +0.164*[#   8]+0.003*[#   1]+0.003*[#   5]
    |psi|^2 = 0.991
==== e(   5) =     9.57673 eV ==== 
     psi = 0.106*[#   2]+0.106*[#   3]+0.106*[#   4]+0.106*[#   6]+0.106*[#   7]
          +0.106*[#   8]+0.016*[#   1]+0.016*[#   5]
    |psi|^2 = 0.665
==== e(   6) =     9.77856 eV ==== 
     psi = 0.135*[#   1]+0.135*[#   5]+0.089*[#   2]+0.089*[#   3]+0.089*[#   4]
          +0.089*[#   6]+0.089*[#   7]+0.089*[#   8]
    |psi|^2 = 0.807
==== e(   7) =    12.32503 eV ==== 
     psi = 0.043*[#   2]+0.043*[#   3]+0.043*[#   4]+0.043*[#   6]+0.043*[#   7]
          +0.043*[#   8]+0.040*[#   1]+0.040*[#   5]
    |psi|^2 = 0.337
==== e(   8) =    12.74173 eV ==== 
     psi = 0.106*[#   1]+0.106*[#   5]+0.078*[#   2]+0.078*[#   3]+0.078*[#   4]
          +0.078*[#   6]+0.078*[#   7]+0.078*[#   8]
    |psi|^2 = 0.683
==== e(   9) =    13.78037 eV ==== 
     psi = 0.083*[#   2]+0.083*[#   3]+0.083*[#   4]+0.083*[#   6]+0.083*[#   7]
          +0.083*[#   8]+0.029*[#   1]+0.029*[#   5]
    |psi|^2 = 0.557
==== e(  10) =    17.32653 eV ==== 
     psi = 0.036*[#   2]+0.036*[#   3]+0.036*[#   4]+0.036*[#   6]+0.036*[#   7]
          +0.036*[#   8]+0.017*[#   1]+0.017*[#   5]
    |psi|^2 = 0.249
==== e(  11) =    18.18739 eV ==== 
     psi = 0.020*[#   1]+0.020*[#   5]+0.019*[#   2]+0.019*[#   3]+0.019*[#   4]
          +0.019*[#   6]+0.019*[#   7]+0.019*[#   8]
    |psi|^2 = 0.153
==== e(  12) =    19.72574 eV ==== 
     psi = 0.010*[#   2]+0.010*[#   3]+0.010*[#   4]+0.010*[#   6]+0.010*[#   7]
          +0.010*[#   8]+0.003*[#   1]+0.003*[#   5]
    |psi|^2 = 0.068
==== e(  13) =    22.45680 eV ==== 
     psi = 0.024*[#   2]+0.024*[#   3]+0.024*[#   4]+0.024*[#   6]+0.024*[#   7]
          +0.024*[#   8]+0.003*[#   1]+0.003*[#   5]
    |psi|^2 = 0.151
==== e(  14) =    23.08412 eV ==== 
     psi = 0.019*[#   2]+0.019*[#   3]+0.019*[#   4]+0.019*[#   6]+0.019*[#   7]
          +0.019*[#   8]+0.011*[#   1]+0.011*[#   5]
    |psi|^2 = 0.137
==== e(  15) =    23.22981 eV ==== 
     psi = 0.005*[#   1]+0.005*[#   5]+0.003*[#   2]+0.003*[#   3]+0.003*[#   4]
          +0.003*[#   6]+0.003*[#   7]+0.003*[#   8]
    |psi|^2 = 0.026
==== e(  16) =    24.17598 eV ==== 
     psi = 0.009*[#   1]+0.009*[#   5]+0.002*[#   2]+0.002*[#   3]+0.002*[#   4]
          +0.002*[#   6]+0.002*[#   7]+0.002*[#   8]
    |psi|^2 = 0.031

 k =   0.6666666667 -0.1666666667  1.0000000000
==== e(   1) =    -2.52192 eV ==== 
     psi = 0.309*[#   1]+0.309*[#   5]+0.063*[#   2]+0.063*[#   3]+0.063*[#   4]
          +0.063*[#   6]+0.063*[#   7]+0.063*[#   8]
    |psi|^2 = 0.995
==== e(   2) =    -0.42714 eV ==== 
     psi = 0.272*[#   1]+0.272*[#   5]+0.075*[#   2]+0.075*[#   3]+0.075*[#   4]
          +0.075*[#   6]+0.075*[#   7]+0.075*[#   8]
    |psi|^2 = 0.993
==== e(   3) =     2.44541 eV ==== 
     psi = 0.160*[#   2]+0.160*[#   3]+0.160*[#   4]+0.160*[#   6]+0.160*[#   7]
          +0.160*[#   8]+0.017*[#   1]+0.017*[#   5]
    |psi|^2 = 0.993
==== e(   4) =     3.06455 eV ==== 
     psi = 0.165*[#   2]+0.165*[#   3]+0.165*[#   4]+0.165*[#   6]+0.165*[#   7]
          +0.165*[#   8]
    |psi|^2 = 0.993
==== e(   5) =     8.90268 eV ==== 
     psi = 0.102*[#   1]+0.102*[#   5]+0.100*[#   2]+0.100*[#   3]+0.100*[#   4]
          +0.100*[#   6]+0.100*[#   7]+0.100*[#   8]
    |psi|^2 = 0.803
==== e(   6) =     9.30662 eV ==== 
     psi = 0.096*[#   1]+0.096*[#   5]+0.070*[#   2]+0.070*[#   3]+0.070*[#   4]
          +0.070*[#   6]+0.070*[#   7]+0.070*[#   8]
    |psi|^2 = 0.614
==== e(   7) =    11.60607 eV ==== 
     psi = 0.097*[#   2]+0.097*[#   3]+0.097*[#   4]+0.097*[#   6]+0.097*[#   7]
          +0.097*[#   8]+0.073*[#   1]+0.073*[#   5]
    |psi|^2 = 0.725
==== e(   8) =    14.53800 eV ==== 
     psi = 0.073*[#   2]+0.073*[#   3]+0.073*[#   4]+0.073*[#   6]+0.073*[#   7]
          +0.073*[#   8]+0.045*[#   1]+0.045*[#   5]
    |psi|^2 = 0.527
==== e(   9) =    15.07439 eV ==== 
     psi = 0.072*[#   2]+0.072*[#   3]+0.072*[#   4]+0.072*[#   6]+0.072*[#   7]
          +0.072*[#   8]+0.002*[#   1]+0.002*[#   5]
    |psi|^2 = 0.435
==== e(  10) =    16.97005 eV ==== 
     psi = 0.033*[#   1]+0.033*[#   5]+0.023*[#   2]+0.023*[#   3]+0.023*[#   4]
          +0.023*[#   6]+0.023*[#   7]+0.023*[#   8]
    |psi|^2 = 0.207
==== e(  11) =    19.01683 eV ==== 
     psi = 0.035*[#   2]+0.035*[#   3]+0.035*[#   4]+0.035*[#   6]+0.035*[#   7]
          +0.035*[#   8]+0.006*[#   1]+0.006*[#   5]
    |psi|^2 = 0.220
==== e(  12) =    20.47205 eV ==== 
     psi = 0.011*[#   1]+0.011*[#   5]+0.004*[#   2]+0.004*[#   3]+0.004*[#   4]
          +0.004*[#   6]+0.004*[#   7]+0.004*[#   8]
    |psi|^2 = 0.048
==== e(  13) =    21.01231 eV ==== 
     psi = 0.016*[#   2]+0.016*[#   3]+0.016*[#   4]+0.016*[#   6]+0.016*[#   7]
          +0.016*[#   8]+0.008*[#   1]+0.008*[#   5]
    |psi|^2 = 0.112
==== e(  14) =    21.49469 eV ==== 
     psi = 0.009*[#   1]+0.009*[#   5]+0.006*[#   2]+0.006*[#   3]+0.006*[#   4]
          +0.006*[#   6]+0.006*[#   7]+0.006*[#   8]
    |psi|^2 = 0.055
==== e(  15) =    22.94376 eV ==== 
     psi = 0.006*[#   1]+0.006*[#   5]+0.005*[#   2]+0.005*[#   3]+0.005*[#   4]
          +0.005*[#   6]+0.005*[#   7]+0.005*[#   8]
    |psi|^2 = 0.040
==== e(  16) =    24.25893 eV ==== 
     psi = 0.004*[#   2]+0.004*[#   3]+0.004*[#   4]+0.004*[#   6]+0.004*[#   7]
          +0.004*[#   8]+0.001*[#   1]+0.001*[#   5]
    |psi|^2 = 0.025

 k =   0.5833333333 -0.0833333333  0.9166666667
==== e(   1) =    -1.99809 eV ==== 
     psi = 0.314*[#   1]+0.314*[#   5]+0.061*[#   2]+0.061*[#   3]+0.061*[#   4]
          +0.061*[#   6]+0.061*[#   7]+0.061*[#   8]
    |psi|^2 = 0.995
==== e(   2) =    -0.93420 eV ==== 
     psi = 0.276*[#   1]+0.276*[#   5]+0.074*[#   2]+0.074*[#   3]+0.074*[#   4]
          +0.074*[#   6]+0.074*[#   7]+0.074*[#   8]
    |psi|^2 = 0.994
==== e(   3) =     2.12934 eV ==== 
     psi = 0.164*[#   2]+0.164*[#   3]+0.164*[#   4]+0.164*[#   6]+0.164*[#   7]
          +0.164*[#   8]+0.006*[#   1]+0.006*[#   5]
    |psi|^2 = 0.993
==== e(   4) =     2.91014 eV ==== 
     psi = 0.165*[#   2]+0.165*[#   3]+0.165*[#   4]+0.165*[#   6]+0.165*[#   7]
          +0.165*[#   8]+0.003*[#   1]+0.003*[#   5]
    |psi|^2 = 0.993
==== e(   5) =     9.24434 eV ==== 
     psi = 0.093*[#   2]+0.093*[#   3]+0.093*[#   4]+0.093*[#   6]+0.093*[#   7]
          +0.093*[#   8]+0.082*[#   1]+0.082*[#   5]
    |psi|^2 = 0.723
==== e(   6) =    10.50911 eV ==== 
     psi = 0.073*[#   2]+0.073*[#   3]+0.073*[#   4]+0.073*[#   6]+0.073*[#   7]
          +0.073*[#   8]+0.040*[#   1]+0.040*[#   5]
    |psi|^2 = 0.516
==== e(   7) =    11.33135 eV ==== 
     psi = 0.116*[#   1]+0.116*[#   5]+0.090*[#   2]+0.090*[#   3]+0.090*[#   4]
          +0.090*[#   6]+0.090*[#   7]+0.090*[#   8]
    |psi|^2 = 0.774
==== e(   8) =    12.71899 eV ==== 
     psi = 0.074*[#   1]+0.074*[#   5]+0.072*[#   2]+0.072*[#   3]+0.072*[#   4]
          +0.072*[#   6]+0.072*[#   7]+0.072*[#   8]
    |psi|^2 = 0.582
==== e(   9) =    15.45312 eV ==== 
     psi = 0.071*[#   2]+0.071*[#   3]+0.071*[#   4]+0.071*[#   6]+0.071*[#   7]
          +0.071*[#   8]+0.011*[#   1]+0.011*[#   5]
    |psi|^2 = 0.446
==== e(  10) =    17.34419 eV ==== 
     psi = 0.048*[#   2]+0.048*[#   3]+0.048*[#   4]+0.048*[#   6]+0.048*[#   7]
          +0.048*[#   8]+0.009*[#   1]+0.009*[#   5]
    |psi|^2 = 0.307
==== e(  11) =    18.57334 eV ==== 
     psi = 0.027*[#   1]+0.027*[#   5]+0.015*[#   2]+0.015*[#   3]+0.015*[#   4]
          +0.015*[#   6]+0.015*[#   7]+0.015*[#   8]
    |psi|^2 = 0.145
==== e(  12) =    20.53416 eV ==== 
     psi = 0.013*[#   1]+0.013*[#   2]+0.013*[#   3]+0.013*[#   4]+0.013*[#   5]
          +0.013*[#   6]+0.013*[#   7]+0.013*[#   8]
    |psi|^2 = 0.108
==== e(  13) =    21.54052 eV ==== 
     psi = 0.005*[#   1]+0.005*[#   5]+0.003*[#   2]+0.003*[#   3]+0.003*[#   4]
          +0.003*[#   6]+0.003*[#   7]+0.003*[#   8]
    |psi|^2 = 0.031
==== e(  14) =    23.21808 eV ==== 
     psi = 0.016*[#   2]+0.016*[#   3]+0.016*[#   4]+0.016*[#   6]+0.016*[#   7]
          +0.016*[#   8]+0.005*[#   1]+0.005*[#   5]
    |psi|^2 = 0.105
==== e(  15) =    23.46417 eV ==== 
     psi = 0.003*[#   2]+0.003*[#   3]+0.003*[#   4]+0.003*[#   6]+0.003*[#   7]
          +0.003*[#   8]+0.002*[#   1]+0.002*[#   5]
    |psi|^2 = 0.023
==== e(  16) =    24.43969 eV ==== 
     psi = 0.002*[#   1]+0.002*[#   5]+0.001*[#   2]+0.001*[#   3]+0.001*[#   4]
          +0.001*[#   6]+0.001*[#   7]+0.001*[#   8]
    |psi|^2 = 0.009

 k =   0.5000000000  0.0000000000  0.8333333333
==== e(   1) =    -2.22982 eV ==== 
     psi = 0.319*[#   1]+0.319*[#   5]+0.060*[#   2]+0.060*[#   3]+0.060*[#   4]
          +0.060*[#   6]+0.060*[#   7]+0.060*[#   8]
    |psi|^2 = 0.996
==== e(   2) =    -0.70421 eV ==== 
     psi = 0.268*[#   1]+0.268*[#   5]+0.076*[#   2]+0.076*[#   3]+0.076*[#   4]
          +0.076*[#   6]+0.076*[#   7]+0.076*[#   8]
    |psi|^2 = 0.994
==== e(   3) =     2.00435 eV ==== 
     psi = 0.163*[#   2]+0.163*[#   3]+0.163*[#   4]+0.163*[#   6]+0.163*[#   7]
          +0.163*[#   8]+0.007*[#   1]+0.007*[#   5]
    |psi|^2 = 0.993
==== e(   4) =     3.13555 eV ==== 
     psi = 0.164*[#   2]+0.164*[#   3]+0.164*[#   4]+0.164*[#   6]+0.164*[#   7]
          +0.164*[#   8]+0.004*[#   1]+0.004*[#   5]
    |psi|^2 = 0.992
==== e(   5) =     9.54628 eV ==== 
     psi = 0.099*[#   2]+0.099*[#   3]+0.099*[#   4]+0.099*[#   6]+0.099*[#   7]
          +0.099*[#   8]+0.058*[#   1]+0.058*[#   5]
    |psi|^2 = 0.707
==== e(   6) =    10.69761 eV ==== 
     psi = 0.091*[#   2]+0.091*[#   3]+0.091*[#   4]+0.091*[#   6]+0.091*[#   7]
          +0.091*[#   8]+0.042*[#   1]+0.042*[#   5]
    |psi|^2 = 0.630
==== e(   7) =    11.22161 eV ==== 
     psi = 0.114*[#   1]+0.114*[#   5]+0.066*[#   2]+0.066*[#   3]+0.066*[#   4]
          +0.066*[#   6]+0.066*[#   7]+0.066*[#   8]
    |psi|^2 = 0.622
==== e(   8) =    12.46673 eV ==== 
     psi = 0.091*[#   1]+0.091*[#   5]+0.067*[#   2]+0.067*[#   3]+0.067*[#   4]
          +0.067*[#   6]+0.067*[#   7]+0.067*[#   8]
    |psi|^2 = 0.587
==== e(   9) =    15.03289 eV ==== 
     psi = 0.082*[#   2]+0.082*[#   3]+0.082*[#   4]+0.082*[#   6]+0.082*[#   7]
          +0.082*[#   8]+0.012*[#   1]+0.012*[#   5]
    |psi|^2 = 0.516
==== e(  10) =    16.44603 eV ==== 
     psi = 0.034*[#   1]+0.034*[#   5]+0.033*[#   2]+0.033*[#   3]+0.033*[#   4]
          +0.033*[#   6]+0.033*[#   7]+0.033*[#   8]
    |psi|^2 = 0.268
==== e(  11) =    19.49215 eV ==== 
     psi = 0.026*[#   2]+0.026*[#   3]+0.026*[#   4]+0.026*[#   6]+0.026*[#   7]
          +0.026*[#   8]+0.008*[#   1]+0.008*[#   5]
    |psi|^2 = 0.173
==== e(  12) =    20.79086 eV ==== 
     psi = 0.014*[#   1]+0.014*[#   5]+0.008*[#   2]+0.008*[#   3]+0.008*[#   4]
          +0.008*[#   6]+0.008*[#   7]+0.008*[#   8]
    |psi|^2 = 0.078
==== e(  13) =    21.14015 eV ==== 
     psi = 0.004*[#   2]+0.004*[#   3]+0.004*[#   4]+0.004*[#   6]+0.004*[#   7]
          +0.004*[#   8]+0.002*[#   1]+0.002*[#   5]
    |psi|^2 = 0.028
==== e(  14) =    22.62600 eV ==== 
     psi = 0.005*[#   1]+0.005*[#   5]+0.004*[#   2]+0.004*[#   3]+0.004*[#   4]
          +0.004*[#   6]+0.004*[#   7]+0.004*[#   8]
    |psi|^2 = 0.036
==== e(  15) =    23.47801 eV ==== 
     psi = 0.023*[#   2]+0.023*[#   3]+0.023*[#   4]+0.023*[#   6]+0.023*[#   7]
          +0.023*[#   8]+0.006*[#   1]+0.006*[#   5]
    |psi|^2 = 0.148
==== e(  16) =    24.98680 eV ==== 
     psi = 0.005*[#   1]+0.005*[#   5]+0.004*[#   2]+0.004*[#   3]+0.004*[#   4]
          +0.004*[#   6]+0.004*[#   7]+0.004*[#   8]
    |psi|^2 = 0.035

 k =  -0.3333333333 -1.0000000000  0.0000000000
==== e(   1) =    -1.48208 eV ==== 
     psi = 0.295*[#   1]+0.295*[#   5]+0.068*[#   2]+0.068*[#   3]+0.068*[#   4]
          +0.068*[#   6]+0.068*[#   7]+0.068*[#   8]
    |psi|^2 = 0.994
==== e(   2) =    -1.48208 eV ==== 
     psi = 0.295*[#   1]+0.295*[#   5]+0.068*[#   2]+0.068*[#   3]+0.068*[#   4]
          +0.068*[#   6]+0.068*[#   7]+0.068*[#   8]
    |psi|^2 = 0.994
==== e(   3) =     2.56893 eV ==== 
     psi = 0.164*[#   2]+0.164*[#   3]+0.164*[#   4]+0.164*[#   6]+0.164*[#   7]
          +0.164*[#   8]+0.004*[#   1]+0.004*[#   5]
    |psi|^2 = 0.993
==== e(   4) =     2.56893 eV ==== 
     psi = 0.164*[#   2]+0.164*[#   3]+0.164*[#   4]+0.164*[#   6]+0.164*[#   7]
          +0.164*[#   8]+0.004*[#   1]+0.004*[#   5]
    |psi|^2 = 0.993
==== e(   5) =     8.96931 eV ==== 
     psi = 0.105*[#   1]+0.105*[#   5]+0.086*[#   2]+0.086*[#   3]+0.086*[#   4]
          +0.086*[#   6]+0.086*[#   7]+0.086*[#   8]
    |psi|^2 = 0.723
==== e(   6) =     8.96931 eV ==== 
     psi = 0.105*[#   1]+0.105*[#   5]+0.086*[#   2]+0.086*[#   3]+0.086*[#   4]
          +0.086*[#   6]+0.086*[#   7]+0.086*[#   8]
    |psi|^2 = 0.723
==== e(   7) =    12.98704 eV ==== 
     psi = 0.081*[#   2]+0.081*[#   3]+0.081*[#   4]+0.081*[#   6]+0.081*[#   7]
          +0.081*[#   8]+0.056*[#   1]+0.056*[#   5]
    |psi|^2 = 0.597
==== e(   8) =    12.98704 eV ==== 
     psi = 0.081*[#   2]+0.081*[#   3]+0.081*[#   4]+0.081*[#   6]+0.081*[#   7]
          +0.081*[#   8]+0.056*[#   1]+0.056*[#   5]
    |psi|^2 = 0.597
==== e(   9) =    16.79898 eV ==== 
     psi = 0.062*[#   2]+0.062*[#   3]+0.062*[#   4]+0.062*[#   6]+0.062*[#   7]
          +0.062*[#   8]
    |psi|^2 = 0.370
==== e(  10) =    16.79898 eV ==== 
     psi = 0.062*[#   2]+0.062*[#   3]+0.062*[#   4]+0.062*[#   6]+0.062*[#   7]
          +0.062*[#   8]
    |psi|^2 = 0.370
==== e(  11) =    19.18413 eV ==== 
     psi = 0.028*[#   1]+0.028*[#   5]+0.010*[#   2]+0.010*[#   3]+0.010*[#   4]
          +0.010*[#   6]+0.010*[#   7]+0.010*[#   8]
    |psi|^2 = 0.114
==== e(  12) =    19.18413 eV ==== 
     psi = 0.028*[#   1]+0.028*[#   5]+0.010*[#   2]+0.010*[#   3]+0.010*[#   4]
          +0.010*[#   6]+0.010*[#   7]+0.010*[#   8]
    |psi|^2 = 0.114
==== e(  13) =    22.71950 eV ==== 
     psi = 0.010*[#   2]+0.010*[#   3]+0.010*[#   4]+0.010*[#   6]+0.010*[#   7]
          +0.010*[#   8]+0.001*[#   1]+0.001*[#   5]
    |psi|^2 = 0.064
==== e(  14) =    22.71950 eV ==== 
     psi = 0.010*[#   2]+0.010*[#   3]+0.010*[#   4]+0.010*[#   6]+0.010*[#   7]
          +0.010*[#   8]+0.001*[#   1]+0.001*[#   5]
    |psi|^2 = 0.064
==== e(  15) =    23.44893 eV ==== 
     psi = 0.006*[#   1]+0.006*[#   5]+0.006*[#   2]+0.006*[#   3]+0.006*[#   4]
          +0.006*[#   6]+0.006*[#   7]+0.006*[#   8]
    |psi|^2 = 0.046
==== e(  16) =    23.44893 eV ==== 
     psi = 0.006*[#   1]+0.006*[#   5]+0.006*[#   2]+0.006*[#   3]+0.006*[#   4]
          +0.006*[#   6]+0.006*[#   7]+0.006*[#   8]
    |psi|^2 = 0.046

 k =  -0.5000000000 -1.0000000000  0.0000000000
==== e(   1) =    -1.43789 eV ==== 
     psi = 0.300*[#   1]+0.300*[#   5]+0.066*[#   2]+0.066*[#   3]+0.066*[#   4]
          +0.066*[#   6]+0.066*[#   7]+0.066*[#   8]
    |psi|^2 = 0.995
==== e(   2) =    -1.43789 eV ==== 
     psi = 0.300*[#   1]+0.300*[#   5]+0.066*[#   2]+0.066*[#   3]+0.066*[#   4]
          +0.066*[#   6]+0.066*[#   7]+0.066*[#   8]
    |psi|^2 = 0.995
==== e(   3) =     2.36077 eV ==== 
     psi = 0.166*[#   2]+0.166*[#   3]+0.166*[#   4]+0.166*[#   6]+0.166*[#   7]
          +0.166*[#   8]
    |psi|^2 = 0.994
==== e(   4) =     2.36077 eV ==== 
     psi = 0.166*[#   2]+0.166*[#   3]+0.166*[#   4]+0.166*[#   6]+0.166*[#   7]
          +0.166*[#   8]
    |psi|^2 = 0.994
==== e(   5) =    10.49254 eV ==== 
     psi = 0.080*[#   2]+0.080*[#   3]+0.080*[#   4]+0.080*[#   6]+0.080*[#   7]
          +0.080*[#   8]
    |psi|^2 = 0.478
==== e(   6) =    10.49254 eV ==== 
     psi = 0.080*[#   2]+0.080*[#   3]+0.080*[#   4]+0.080*[#   6]+0.080*[#   7]
          +0.080*[#   8]
    |psi|^2 = 0.478
==== e(   7) =    11.22336 eV ==== 
     psi = 0.158*[#   1]+0.158*[#   5]+0.087*[#   2]+0.087*[#   3]+0.087*[#   4]
          +0.087*[#   6]+0.087*[#   7]+0.087*[#   8]
    |psi|^2 = 0.836
==== e(   8) =    11.22336 eV ==== 
     psi = 0.158*[#   1]+0.158*[#   5]+0.087*[#   2]+0.087*[#   3]+0.087*[#   4]
          +0.087*[#   6]+0.087*[#   7]+0.087*[#   8]
    |psi|^2 = 0.836
==== e(   9) =    16.80369 eV ==== 
     psi = 0.061*[#   2]+0.061*[#   3]+0.061*[#   4]+0.061*[#   6]+0.061*[#   7]
          +0.061*[#   8]
    |psi|^2 = 0.364
==== e(  10) =    16.80369 eV ==== 
     psi = 0.061*[#   2]+0.061*[#   3]+0.061*[#   4]+0.061*[#   6]+0.061*[#   7]
          +0.061*[#   8]
    |psi|^2 = 0.364
==== e(  11) =    19.26634 eV ==== 
     psi = 0.032*[#   1]+0.032*[#   5]+0.012*[#   2]+0.012*[#   3]+0.012*[#   4]
          +0.012*[#   6]+0.012*[#   7]+0.012*[#   8]
    |psi|^2 = 0.134
==== e(  12) =    19.26634 eV ==== 
     psi = 0.032*[#   1]+0.032*[#   5]+0.012*[#   2]+0.012*[#   3]+0.012*[#   4]
          +0.012*[#   6]+0.012*[#   7]+0.012*[#   8]
    |psi|^2 = 0.134
==== e(  13) =    22.67247 eV ==== 
     psi = 0.002*[#   2]+0.002*[#   3]+0.002*[#   4]+0.002*[#   6]+0.002*[#   7]
          +0.002*[#   8]
    |psi|^2 = 0.011
==== e(  14) =    22.67247 eV ==== 
     psi = 0.002*[#   2]+0.002*[#   3]+0.002*[#   4]+0.002*[#   6]+0.002*[#   7]
          +0.002*[#   8]
    |psi|^2 = 0.011
==== e(  15) =    24.82663 eV ==== 

    |psi|^2 = 0.005
==== e(  16) =    24.82663 eV ==== 

    |psi|^2 = 0.005

Lowdin Charges: 

     Atom #   1: total charge =   3.9638, s =  1.1614, 
     Atom #   1: total charge =   3.9638, p =  2.8024, pz=  0.9341, px=  0.9341, py=  0.9341, 
     Atom #   2: total charge =   3.9638, s =  1.1614, 
     Atom #   2: total charge =   3.9638, p =  2.8024, pz=  0.9341, px=  0.9341, py=  0.9341, 
     Spilling Parameter:   0.0091

     PROJWFC      :      0.19s CPU      0.28s WALL


   This run was terminated on:  19:32:26  31Oct2025            

=------------------------------------------------------------------------------=
   JOB DONE.
=------------------------------------------------------------------------------=
