
     Program BANDS v.7.4.1 starts on 31Oct2025 at 15: 8:48 

     This program is part of the open-source Quantum ESPRESSO suite
     for quantum simulation of materials; please cite
         "P. Giannozzi et al., J. Phys.:Condens. Matter 21 395502 (2009);
         "P. Giannozzi et al., J. Phys.:Condens. Matter 29 465901 (2017);
         "P. Giannozzi et al., J. Chem. Phys. 152 154105 (2020);
          URL http://www.quantum-espresso.org", 
     in publications or presentations arising from this work. More details at
     http://www.quantum-espresso.org/quote

     Parallel version (MPI), running on     1 processors

     MPI processes distributed on     1 nodes
     0 MiB available memory on the printing compute node when the environment starts


     Reading xml data from directory:

     ./tmp/silicon.save/

     IMPORTANT: XC functional enforced from input :
     Exchange-correlation= PBE
                           (   1   4   3   4   0   0   0)
     Any further DFT definition will be discarded
     Please, verify this is what you really want


     G-vector sticks info
     --------------------
     sticks:   dense  smooth     PW     G-vecs:    dense   smooth      PW
     Sum         433     433    139                 5961     5961    1067

     Using Slab Decomposition


     Check: negative core charge=   -0.000004
     Reading collected, re-writing distributed wavefunctions
     high-symmetry point:  0.0000 0.0000 0.0000   x coordinate   0.0000
     high-symmetry point: -1.0000 0.0000 0.0000   x coordinate   1.0000
     high-symmetry point: -1.0000 0.5000 0.0000   x coordinate   1.5000
     high-symmetry point: -0.7500 0.7500 0.0000   x coordinate   1.8536
     high-symmetry point:  0.0000 0.0000 0.0000   x coordinate   2.9142
     high-symmetry point: -0.5000 0.5000 0.5000   x coordinate   3.7802

     Plottable bands (eV) written to file silicon.bands.dat.gnu
     Bands written to file silicon.bands.dat

 **************************************************************************

                    xk=(   0.00000,   0.00000,   0.00000  )

     point group O_h (m-3m) 
     there are 10 classes
     the character table:

       E     8C3   3C2   6C4   6C2'  i     8S6   3s_h  6S4   6s_d 
A_1g   1.00  1.00  1.00  1.00  1.00  1.00  1.00  1.00  1.00  1.00
A_2g   1.00  1.00  1.00 -1.00 -1.00  1.00  1.00  1.00 -1.00 -1.00
E_g    2.00 -1.00  2.00  0.00  0.00  2.00 -1.00  2.00  0.00  0.00
T_1g   3.00  0.00 -1.00  1.00 -1.00  3.00  0.00 -1.00  1.00 -1.00
T_2g   3.00  0.00 -1.00 -1.00  1.00  3.00  0.00 -1.00 -1.00  1.00
A_1u   1.00  1.00  1.00  1.00  1.00 -1.00 -1.00 -1.00 -1.00 -1.00
A_2u   1.00  1.00  1.00 -1.00 -1.00 -1.00 -1.00 -1.00  1.00  1.00
E_u    2.00 -1.00  2.00  0.00  0.00 -2.00  1.00 -2.00  0.00  0.00
T_1u   3.00  0.00 -1.00  1.00 -1.00 -3.00  0.00  1.00 -1.00  1.00
T_2u   3.00  0.00 -1.00 -1.00  1.00 -3.00  0.00  1.00  1.00 -1.00

     the symmetry operations in each class and the name of the first element:

     E        1
                                                                 
     8C3     17   19   20   18   24   21   22   23
                                                                 
     3C2      2    4    3
                                                                 
     6C4      7    8   15   16   12   11
                                                                 
     6C2'     5    6   14   13   10    9
                                                                 
     i       25
                                                                 
     8S6     41   43   44   42   48   45   46   47
                                                                 
     3s_h    26   28   27
                                                                 
     6S4     31   32   39   40   36   35
                                                                 
     6s_d    29   30   38   37   34   33
                                                                 

     Band symmetry, O_h (m-3m)  point group:

     e(  1 -  1) =     -5.74891  eV     1   --> A_1g G_1   G_1+
     e(  2 -  4) =      6.21980  eV     3   --> T_2g G_25' G_5+
     e(  5 -  7) =      8.77964  eV     3   --> T_1u G_15  G_4-
     e(  8 -  8) =      9.58880  eV     1   --> A_2u G_2'  G_2-

 **************************************************************************

 **************************************************************************

                    xk=(  -0.02500,   0.00000,   0.00000  )

     point group C_4v (4mm) 
     there are  5 classes
     the character table:

       E     2C4   C2    2s_v  2s_d 
A_1    1.00  1.00  1.00  1.00  1.00
A_2    1.00  1.00  1.00 -1.00 -1.00
B_1    1.00 -1.00  1.00  1.00 -1.00
B_2    1.00 -1.00  1.00 -1.00  1.00
E      2.00  0.00 -2.00  0.00  0.00

     the symmetry operations in each class and the name of the first element:

     E        1
                                                                 
     2C4      3    4
                                                                 
     C2       2
                                                                 
     2s_v     5    6
                                                                 
     2s_d     7    8
                                                                 

     Band symmetry, C_4v (4mm)  point group:

     e(  1 -  1) =     -5.74617  eV     1   --> A_1  G_1 D_1   
     e(  2 -  2) =      6.20088  eV     1   --> B_2  G_4 D_2'  
     e(  3 -  4) =      6.20775  eV     2   --> E    G_5 D_5   
     e(  5 -  5) =      8.77279  eV     1   --> A_1  G_1 D_1   
     e(  6 -  7) =      8.79500  eV     2   --> E    G_5 D_5   
     e(  8 -  8) =      9.60736  eV     1   --> B_2  G_4 D_2'  

 **************************************************************************

 **************************************************************************

                    xk=(  -0.05000,   0.00000,   0.00000  )

     Band symmetry, C_4v (4mm)  point group:

     e(  1 -  1) =     -5.73796  eV     1   --> A_1  G_1 D_1   
     e(  2 -  2) =      6.14539  eV     1   --> B_2  G_4 D_2'  
     e(  3 -  4) =      6.17262  eV     2   --> E    G_5 D_5   
     e(  5 -  5) =      8.75251  eV     1   --> A_1  G_1 D_1   
     e(  6 -  7) =      8.84025  eV     2   --> E    G_5 D_5   
     e(  8 -  8) =      9.66156  eV     1   --> B_2  G_4 D_2'  

 **************************************************************************

 **************************************************************************

                    xk=(  -0.07500,   0.00000,   0.00000  )

     Band symmetry, C_4v (4mm)  point group:

     e(  1 -  1) =     -5.72427  eV     1   --> A_1  G_1 D_1   
     e(  2 -  2) =      6.05681  eV     1   --> B_2  G_4 D_2'  
     e(  3 -  4) =      6.11674  eV     2   --> E    G_5 D_5   
     e(  5 -  5) =      8.71940  eV     1   --> A_1  G_1 D_1   
     e(  6 -  7) =      8.91299  eV     2   --> E    G_5 D_5   
     e(  8 -  8) =      9.74734  eV     1   --> B_2  G_4 D_2'  

 **************************************************************************

 **************************************************************************

                    xk=(  -0.10000,   0.00000,   0.00000  )

     Band symmetry, C_4v (4mm)  point group:

     e(  1 -  1) =     -5.70512  eV     1   --> A_1  G_1 D_1   
     e(  2 -  2) =      5.93985  eV     1   --> B_2  G_4 D_2'  
     e(  3 -  4) =      6.04338  eV     2   --> E    G_5 D_5   
     e(  5 -  5) =      8.67440  eV     1   --> A_1  G_1 D_1   
     e(  6 -  7) =      9.00992  eV     2   --> E    G_5 D_5   
     e(  8 -  8) =      9.85887  eV     1   --> B_2  G_4 D_2'  

 **************************************************************************

 **************************************************************************

                    xk=(  -0.12500,   0.00000,   0.00000  )

     Band symmetry, C_4v (4mm)  point group:

     e(  1 -  1) =     -5.68050  eV     1   --> A_1  G_1 D_1   
     e(  2 -  2) =      5.79954  eV     1   --> B_2  G_4 D_2'  
     e(  3 -  4) =      5.95606  eV     2   --> E    G_5 D_5   
     e(  5 -  5) =      8.61871  eV     1   --> A_1  G_1 D_1   
     e(  6 -  7) =      9.12749  eV     2   --> E    G_5 D_5   
     e(  8 -  8) =      9.98932  eV     1   --> B_2  G_4 D_2'  

 **************************************************************************

 **************************************************************************

                    xk=(  -0.15000,   0.00000,   0.00000  )

     Band symmetry, C_4v (4mm)  point group:

     e(  1 -  1) =     -5.65043  eV     1   --> A_1  G_1 D_1   
     e(  2 -  2) =      5.64052  eV     1   --> B_2  G_4 D_2'  
     e(  3 -  4) =      5.85812  eV     2   --> E    G_5 D_5   
     e(  5 -  5) =      8.55371  eV     1   --> A_1  G_1 D_1   
     e(  6 -  7) =      9.26232  eV     2   --> E    G_5 D_5   
     e(  8 -  8) =     10.13125  eV     1   --> B_2  G_4 D_2'  

 **************************************************************************

 **************************************************************************

                    xk=(  -0.17500,   0.00000,   0.00000  )

     Band symmetry, C_4v (4mm)  point group:

     e(  1 -  1) =     -5.61492  eV     1   --> A_1  G_1 D_1   
     e(  2 -  2) =      5.46672  eV     1   --> B_2  G_4 D_2'  
     e(  3 -  4) =      5.75245  eV     2   --> E    G_5 D_5   
     e(  5 -  5) =      8.48082  eV     1   --> A_1  G_1 D_1   
     e(  6 -  7) =      9.41149  eV     2   --> E    G_5 D_5   
     e(  8 -  8) =     10.27636  eV     1   --> B_2  G_4 D_2'  

 **************************************************************************

 **************************************************************************

                    xk=(  -0.20000,   0.00000,   0.00000  )

     Band symmetry, C_4v (4mm)  point group:

     e(  1 -  1) =     -5.57398  eV     1   --> A_1  G_1 D_1   
     e(  2 -  2) =      5.28141  eV     1   --> B_2  G_4 D_2'  
     e(  3 -  4) =      5.64146  eV     2   --> E    G_5 D_5   
     e(  5 -  5) =      8.40149  eV     1   --> A_1  G_1 D_1   
     e(  6 -  7) =      9.57253  eV     2   --> E    G_5 D_5   
     e(  8 -  8) =     10.41482  eV     1   --> B_2  G_4 D_2'  

 **************************************************************************

 **************************************************************************

                    xk=(  -0.22500,   0.00000,   0.00000  )

     Band symmetry, C_4v (4mm)  point group:

     e(  1 -  1) =     -5.52762  eV     1   --> A_1  G_1 D_1   
     e(  2 -  2) =      5.08705  eV     1   --> B_2  G_4 D_2'  
     e(  3 -  4) =      5.52698  eV     2   --> E    G_5 D_5   
     e(  5 -  5) =      8.31706  eV     1   --> A_1  G_1 D_1   
     e(  6 -  7) =      9.74345  eV     2   --> E    G_5 D_5   
     e(  8 -  8) =     10.53440  eV     1   --> B_2  G_4 D_2'  

 **************************************************************************

 **************************************************************************

                    xk=(  -0.25000,   0.00000,   0.00000  )

     Band symmetry, C_4v (4mm)  point group:

     e(  1 -  1) =     -5.47586  eV     1   --> A_1  G_1 D_1   
     e(  2 -  2) =      4.88572  eV     1   --> B_2  G_4 D_2'  
     e(  3 -  4) =      5.41075  eV     2   --> E    G_5 D_5   
     e(  5 -  5) =      8.22891  eV     1   --> A_1  G_1 D_1   
     e(  6 -  7) =      9.92267  eV     2   --> E    G_5 D_5   
     e(  8 -  8) =     10.62024  eV     1   --> B_2  G_4 D_2'  

 **************************************************************************

 **************************************************************************

                    xk=(  -0.27500,   0.00000,   0.00000  )

     Band symmetry, C_4v (4mm)  point group:

     e(  1 -  1) =     -5.41872  eV     1   --> A_1  G_1 D_1   
     e(  2 -  2) =      4.67882  eV     1   --> B_2  G_4 D_2'  
     e(  3 -  4) =      5.29386  eV     2   --> E    G_5 D_5   
     e(  5 -  5) =      8.13817  eV     1   --> A_1  G_1 D_1   
     e(  6 -  7) =     10.10885  eV     2   --> E    G_5 D_5   
     e(  8 -  8) =     10.65715  eV     1   --> B_2  G_4 D_2'  

 **************************************************************************

 **************************************************************************

                    xk=(  -0.30000,   0.00000,   0.00000  )

     Band symmetry, C_4v (4mm)  point group:

     e(  1 -  1) =     -5.35622  eV     1   --> A_1  G_1 D_1   
     e(  2 -  2) =      4.46765  eV     1   --> B_2  G_4 D_2'  
     e(  3 -  4) =      5.17734  eV     2   --> E    G_5 D_5   
     e(  5 -  5) =      8.04593  eV     1   --> A_1  G_1 D_1   
     e(  6 -  7) =     10.30106  eV     2   --> E    G_5 D_5   
     e(  8 -  8) =     10.63611  eV     1   --> B_2  G_4 D_2'  

 **************************************************************************

 **************************************************************************

                    xk=(  -0.32500,   0.00000,   0.00000  )

     Band symmetry, C_4v (4mm)  point group:

     e(  1 -  1) =     -5.28838  eV     1   --> A_1  G_1 D_1   
     e(  2 -  2) =      4.25305  eV     1   --> B_2  G_4 D_2'  
     e(  3 -  4) =      5.06186  eV     2   --> E    G_5 D_5   
     e(  5 -  5) =      7.95310  eV     1   --> A_1  G_1 D_1   
     e(  6 -  7) =     10.49854  eV     2   --> E    G_5 D_5   
     e(  8 -  8) =     10.55896  eV     1   --> B_2  G_4 D_2'  

 **************************************************************************

 **************************************************************************

                    xk=(  -0.35000,   0.00000,   0.00000  )

     Band symmetry, C_4v (4mm)  point group:

     e(  1 -  1) =     -5.21523  eV     1   --> A_1  G_1 D_1   
     e(  2 -  2) =      4.03579  eV     1   --> B_2  G_4 D_2'  
     e(  3 -  4) =      4.94820  eV     2   --> E    G_5 D_5   
     e(  5 -  5) =      7.86061  eV     1   --> A_1  G_1 D_1   
     e(  6 -  6) =     10.43683  eV     1   --> B_2  G_4 D_2'  
     e(  7 -  8) =     10.70039  eV     2   --> E    G_5 D_5   

 **************************************************************************

 **************************************************************************

                    xk=(  -0.37500,   0.00000,   0.00000  )

     Band symmetry, C_4v (4mm)  point group:

     e(  1 -  1) =     -5.13679  eV     1   --> A_1  G_1 D_1   
     e(  2 -  2) =      3.81640  eV     1   --> B_2  G_4 D_2'  
     e(  3 -  4) =      4.83680  eV     2   --> E    G_5 D_5   
     e(  5 -  5) =      7.76915  eV     1   --> A_1  G_1 D_1   
     e(  6 -  6) =     10.28335  eV     1   --> B_2  G_4 D_2'  
     e(  7 -  8) =     10.90606  eV     2   --> E    G_5 D_5   

 **************************************************************************

 **************************************************************************

                    xk=(  -0.40000,   0.00000,   0.00000  )

     Band symmetry, C_4v (4mm)  point group:

     e(  1 -  1) =     -5.05310  eV     1   --> A_1  G_1 D_1   
     e(  2 -  2) =      3.59533  eV     1   --> B_2  G_4 D_2'  
     e(  3 -  4) =      4.72806  eV     2   --> E    G_5 D_5   
     e(  5 -  5) =      7.67940  eV     1   --> A_1  G_1 D_1   
     e(  6 -  6) =     10.11013  eV     1   --> B_2  G_4 D_2'  
     e(  7 -  8) =     11.11515  eV     2   --> E    G_5 D_5   

 **************************************************************************

 **************************************************************************

                    xk=(  -0.42500,   0.00000,   0.00000  )

     Band symmetry, C_4v (4mm)  point group:

     e(  1 -  1) =     -4.96418  eV     1   --> A_1  G_1 D_1   
     e(  2 -  2) =      3.37297  eV     1   --> B_2  G_4 D_2'  
     e(  3 -  4) =      4.62233  eV     2   --> E    G_5 D_5   
     e(  5 -  5) =      7.59192  eV     1   --> A_1  G_1 D_1   
     e(  6 -  6) =      9.92558  eV     1   --> B_2  G_4 D_2'  
     e(  7 -  8) =     11.32727  eV     2   --> E    G_5 D_5   

 **************************************************************************

 **************************************************************************

                    xk=(  -0.45000,   0.00000,   0.00000  )

     Band symmetry, C_4v (4mm)  point group:

     e(  1 -  1) =     -4.87007  eV     1   --> A_1  G_1 D_1   
     e(  2 -  2) =      3.14961  eV     1   --> B_2  G_4 D_2'  
     e(  3 -  4) =      4.51989  eV     2   --> E    G_5 D_5   
     e(  5 -  5) =      7.50723  eV     1   --> A_1  G_1 D_1   
     e(  6 -  6) =      9.73550  eV     1   --> B_2  G_4 D_2'  
     e(  7 -  8) =     11.54209  eV     2   --> E    G_5 D_5   

 **************************************************************************

 **************************************************************************

                    xk=(  -0.47500,   0.00000,   0.00000  )

     Band symmetry, C_4v (4mm)  point group:

     e(  1 -  1) =     -4.77082  eV     1   --> A_1  G_1 D_1   
     e(  2 -  2) =      2.92553  eV     1   --> B_2  G_4 D_2'  
     e(  3 -  4) =      4.42100  eV     2   --> E    G_5 D_5   
     e(  5 -  5) =      7.42578  eV     1   --> A_1  G_1 D_1   
     e(  6 -  6) =      9.54385  eV     1   --> B_2  G_4 D_2'  
     e(  7 -  8) =     11.75933  eV     2   --> E    G_5 D_5   

 **************************************************************************

 **************************************************************************

                    xk=(  -0.50000,   0.00000,   0.00000  )

     Band symmetry, C_4v (4mm)  point group:

     e(  1 -  1) =     -4.66645  eV     1   --> A_1  G_1 D_1   
     e(  2 -  2) =      2.70097  eV     1   --> B_2  G_4 D_2'  
     e(  3 -  4) =      4.32584  eV     2   --> E    G_5 D_5   
     e(  5 -  5) =      7.34805  eV     1   --> A_1  G_1 D_1   
     e(  6 -  6) =      9.35336  eV     1   --> B_2  G_4 D_2'  
     e(  7 -  8) =     11.97899  eV     2   --> E    G_5 D_5   

 **************************************************************************

 **************************************************************************

                    xk=(  -0.52500,   0.00000,   0.00000  )

     Band symmetry, C_4v (4mm)  point group:

     e(  1 -  1) =     -4.55702  eV     1   --> A_1  G_1 D_1   
     e(  2 -  2) =      2.47612  eV     1   --> B_2  G_4 D_2'  
     e(  3 -  4) =      4.23459  eV     2   --> E    G_5 D_5   
     e(  5 -  5) =      7.27423  eV     1   --> A_1  G_1 D_1   
     e(  6 -  6) =      9.16593  eV     1   --> B_2  G_4 D_2'  
     e(  7 -  8) =     12.20043  eV     2   --> E    G_5 D_5   

 **************************************************************************

 **************************************************************************

                    xk=(  -0.55000,   0.00000,   0.00000  )

     Band symmetry, C_4v (4mm)  point group:

     e(  1 -  1) =     -4.44258  eV     1   --> A_1  G_1 D_1   
     e(  2 -  2) =      2.25119  eV     1   --> B_2  G_4 D_2'  
     e(  3 -  4) =      4.14738  eV     2   --> E    G_5 D_5   
     e(  5 -  5) =      7.20470  eV     1   --> A_1  G_1 D_1   
     e(  6 -  6) =      8.98295  eV     1   --> B_2  G_4 D_2'  
     e(  7 -  8) =     12.42368  eV     2   --> E    G_5 D_5   

 **************************************************************************

 **************************************************************************

                    xk=(  -0.57500,   0.00000,   0.00000  )

     Band symmetry, C_4v (4mm)  point group:

     e(  1 -  1) =     -4.32316  eV     1   --> A_1  G_1 D_1   
     e(  2 -  2) =      2.02634  eV     1   --> B_2  G_4 D_2'  
     e(  3 -  4) =      4.06431  eV     2   --> E    G_5 D_5   
     e(  5 -  5) =      7.13968  eV     1   --> A_1  G_1 D_1   
     e(  6 -  6) =      8.80532  eV     1   --> B_2  G_4 D_2'  
     e(  7 -  8) =     12.64866  eV     2   --> E    G_5 D_5   

 **************************************************************************

 **************************************************************************

                    xk=(  -0.60000,   0.00000,   0.00000  )

     Band symmetry, C_4v (4mm)  point group:

     e(  1 -  1) =     -4.19884  eV     1   --> A_1  G_1 D_1   
     e(  2 -  2) =      1.80182  eV     1   --> B_2  G_4 D_2'  
     e(  3 -  4) =      3.98561  eV     2   --> E    G_5 D_5   
     e(  5 -  5) =      7.07962  eV     1   --> A_1  G_1 D_1   
     e(  6 -  6) =      8.63400  eV     1   --> B_2  G_4 D_2'  
     e(  7 -  8) =     12.87525  eV     2   --> E    G_5 D_5   

 **************************************************************************

 **************************************************************************

                    xk=(  -0.62500,   0.00000,   0.00000  )

     Band symmetry, C_4v (4mm)  point group:

     e(  1 -  1) =     -4.06966  eV     1   --> A_1  G_1 D_1   
     e(  2 -  2) =      1.57777  eV     1   --> B_2  G_4 D_2'  
     e(  3 -  4) =      3.91130  eV     2   --> E    G_5 D_5   
     e(  5 -  5) =      7.02465  eV     1   --> A_1  G_1 D_1   
     e(  6 -  6) =      8.46942  eV     1   --> B_2  G_4 D_2'  
     e(  7 -  8) =     13.10335  eV     2   --> E    G_5 D_5   

 **************************************************************************

 **************************************************************************

                    xk=(  -0.65000,   0.00000,   0.00000  )

     Band symmetry, C_4v (4mm)  point group:

     e(  1 -  1) =     -3.93568  eV     1   --> A_1  G_1 D_1   
     e(  2 -  2) =      1.35434  eV     1   --> B_2  G_4 D_2'  
     e(  3 -  4) =      3.84146  eV     2   --> E    G_5 D_5   
     e(  5 -  5) =      6.97500  eV     1   --> A_1  G_1 D_1   
     e(  6 -  6) =      8.31187  eV     1   --> B_2  G_4 D_2'  
     e(  7 -  8) =     13.33286  eV     2   --> E    G_5 D_5   

 **************************************************************************

 **************************************************************************

                    xk=(  -0.67500,   0.00000,   0.00000  )

     Band symmetry, C_4v (4mm)  point group:

     e(  1 -  1) =     -3.79698  eV     1   --> A_1  G_1 D_1   
     e(  2 -  2) =      1.13179  eV     1   --> B_2  G_4 D_2'  
     e(  3 -  4) =      3.77618  eV     2   --> E    G_5 D_5   
     e(  5 -  5) =      6.93083  eV     1   --> A_1  G_1 D_1   
     e(  6 -  6) =      8.16191  eV     1   --> B_2  G_4 D_2'  
     e(  7 -  8) =     13.56372  eV     2   --> E    G_5 D_5   

 **************************************************************************

 **************************************************************************

                    xk=(  -0.70000,   0.00000,   0.00000  )

     Band symmetry, C_4v (4mm)  point group:

     e(  1 -  1) =     -3.65362  eV     1   --> A_1  G_1 D_1   
     e(  2 -  2) =      0.91025  eV     1   --> B_2  G_4 D_2'  
     e(  3 -  4) =      3.71552  eV     2   --> E    G_5 D_5   
     e(  5 -  5) =      6.89234  eV     1   --> A_1  G_1 D_1   
     e(  6 -  6) =      8.01962  eV     1   --> B_2  G_4 D_2'  
     e(  7 -  8) =     13.79586  eV     2   --> E    G_5 D_5   

 **************************************************************************

 **************************************************************************

                    xk=(  -0.72500,   0.00000,   0.00000  )

     Band symmetry, C_4v (4mm)  point group:

     e(  1 -  1) =     -3.50568  eV     1   --> A_1  G_1 D_1   
     e(  2 -  2) =      0.68991  eV     1   --> B_2  G_4 D_2'  
     e(  3 -  4) =      3.65949  eV     2   --> E    G_5 D_5   
     e(  5 -  5) =      6.85970  eV     1   --> A_1  G_1 D_1   
     e(  6 -  6) =      7.88516  eV     1   --> B_2  G_4 D_2'  
     e(  7 -  8) =     14.02919  eV     2   --> E    G_5 D_5   

 **************************************************************************

 **************************************************************************

                    xk=(  -0.75000,   0.00000,   0.00000  )

     Band symmetry, C_4v (4mm)  point group:

     e(  1 -  1) =     -3.35323  eV     1   --> A_1  G_1 D_1   
     e(  2 -  2) =      0.47097  eV     1   --> B_2  G_4 D_2'  
     e(  3 -  4) =      3.60822  eV     2   --> E    G_5 D_5   
     e(  5 -  5) =      6.83308  eV     1   --> A_1  G_1 D_1   
     e(  6 -  6) =      7.75861  eV     1   --> B_2  G_4 D_2'  
     e(  7 -  8) =     14.26356  eV     2   --> E    G_5 D_5   

 **************************************************************************

 **************************************************************************

                    xk=(  -0.77500,   0.00000,   0.00000  )

     Band symmetry, C_4v (4mm)  point group:

     e(  1 -  1) =     -3.19636  eV     1   --> A_1  G_1 D_1   
     e(  2 -  2) =      0.25360  eV     1   --> B_2  G_4 D_2'  
     e(  3 -  4) =      3.56172  eV     2   --> E    G_5 D_5   
     e(  5 -  5) =      6.81262  eV     1   --> A_1  G_1 D_1   
     e(  6 -  6) =      7.64003  eV     1   --> B_2  G_4 D_2'  
     e(  7 -  8) =     14.49884  eV     2   --> E    G_5 D_5   

 **************************************************************************

 **************************************************************************

                    xk=(  -0.80000,   0.00000,   0.00000  )

     Band symmetry, C_4v (4mm)  point group:

     e(  1 -  1) =     -3.03517  eV     1   --> A_1  G_1 D_1   
     e(  2 -  2) =      0.03800  eV     1   --> B_2  G_4 D_2'  
     e(  3 -  4) =      3.52002  eV     2   --> E    G_5 D_5   
     e(  5 -  5) =      6.79847  eV     1   --> A_1  G_1 D_1   
     e(  6 -  6) =      7.52945  eV     1   --> B_2  G_4 D_2'  
     e(  7 -  8) =     14.73475  eV     2   --> E    G_5 D_5   

 **************************************************************************

 **************************************************************************

                    xk=(  -0.82500,   0.00000,   0.00000  )

     Band symmetry, C_4v (4mm)  point group:

     e(  1 -  1) =     -2.86974  eV     1   --> A_1  G_1 D_1   
     e(  2 -  2) =     -0.17566  eV     1   --> B_2  G_4 D_2'  
     e(  3 -  4) =      3.48315  eV     2   --> E    G_5 D_5   
     e(  5 -  5) =      6.79077  eV     1   --> A_1  G_1 D_1   
     e(  6 -  6) =      7.42686  eV     1   --> B_2  G_4 D_2'  
     e(  7 -  8) =     14.97090  eV     2   --> E    G_5 D_5   

 **************************************************************************

 **************************************************************************

                    xk=(  -0.85000,   0.00000,   0.00000  )

     Band symmetry, C_4v (4mm)  point group:

     e(  1 -  1) =     -2.70016  eV     1   --> A_1  G_1 D_1   
     e(  2 -  2) =     -0.38720  eV     1   --> B_2  G_4 D_2'  
     e(  3 -  4) =      3.45116  eV     2   --> E    G_5 D_5   
     e(  5 -  5) =      6.78970  eV     1   --> A_1  G_1 D_1   
     e(  6 -  6) =      7.33225  eV     1   --> B_2  G_4 D_2'  
     e(  7 -  8) =     15.20669  eV     2   --> E    G_5 D_5   

 **************************************************************************

 **************************************************************************

                    xk=(  -0.87500,   0.00000,   0.00000  )

     Band symmetry, C_4v (4mm)  point group:

     e(  1 -  1) =     -2.52656  eV     1   --> A_1  G_1 D_1   
     e(  2 -  2) =     -0.59644  eV     1   --> B_2  G_4 D_2'  
     e(  3 -  4) =      3.42405  eV     2   --> E    G_5 D_5   
     e(  5 -  5) =      6.79529  eV     1   --> A_1  G_1 D_1   
     e(  6 -  6) =      7.24553  eV     1   --> B_2  G_4 D_2'  
     e(  7 -  8) =     15.44089  eV     2   --> E    G_5 D_5   

 **************************************************************************

 **************************************************************************

                    xk=(  -0.90000,   0.00000,   0.00000  )

     Band symmetry, C_4v (4mm)  point group:

     e(  1 -  1) =     -2.34904  eV     1   --> A_1  G_1 D_1   
     e(  2 -  2) =     -0.80321  eV     1   --> B_2  G_4 D_2'  
     e(  3 -  4) =      3.40184  eV     2   --> E    G_5 D_5   
     e(  5 -  5) =      6.80770  eV     1   --> A_1  G_1 D_1   
     e(  6 -  6) =      7.16666  eV     1   --> B_2  G_4 D_2'  
     e(  7 -  8) =     15.67135  eV     2   --> E    G_5 D_5   

 **************************************************************************

 **************************************************************************

                    xk=(  -0.92500,   0.00000,   0.00000  )

     Band symmetry, C_4v (4mm)  point group:

     e(  1 -  1) =     -2.16772  eV     1   --> A_1  G_1 D_1   
     e(  2 -  2) =     -1.00733  eV     1   --> B_2  G_4 D_2'  
     e(  3 -  4) =      3.38455  eV     2   --> E    G_5 D_5   
     e(  5 -  5) =      6.82706  eV     1   --> A_1  G_1 D_1   
     e(  6 -  6) =      7.09556  eV     1   --> B_2  G_4 D_2'  
     e(  7 -  8) =     15.89375  eV     2   --> E    G_5 D_5   

 **************************************************************************

 **************************************************************************

                    xk=(  -0.95000,   0.00000,   0.00000  )

     Band symmetry, C_4v (4mm)  point group:

     e(  1 -  1) =     -1.98272  eV     1   --> A_1  G_1 D_1   
     e(  2 -  2) =     -1.20865  eV     1   --> B_2  G_4 D_2'  
     e(  3 -  4) =      3.37219  eV     2   --> E    G_5 D_5   
     e(  5 -  5) =      6.85353  eV     1   --> A_1  G_1 D_1   
     e(  6 -  6) =      7.03216  eV     1   --> B_2  G_4 D_2'  
     e(  7 -  8) =     16.09829  eV     2   --> E    G_5 D_5   

 **************************************************************************

 **************************************************************************

                    xk=(  -0.97500,   0.00000,   0.00000  )

     Band symmetry, C_4v (4mm)  point group:

     e(  1 -  1) =     -1.79417  eV     1   --> A_1  G_1 D_1   
     e(  2 -  2) =     -1.40699  eV     1   --> B_2  G_4 D_2'  
     e(  3 -  4) =      3.36477  eV     2   --> E    G_5 D_5   
     e(  5 -  5) =      6.88714  eV     1   --> A_1  G_1 D_1   
     e(  6 -  6) =      6.97635  eV     1   --> B_2  G_4 D_2'  
     e(  7 -  8) =     16.26019  eV     2   --> E    G_5 D_5   

 **************************************************************************

 **************************************************************************

                    xk=(  -1.00000,   0.00000,   0.00000  )

     zone border point and non-symmorphic group 
     symmetry decomposition not available

 **************************************************************************

 **************************************************************************

                    xk=(  -1.00000,   0.01250,   0.00000  )

     zone border point and non-symmorphic group 
     symmetry decomposition not available

 **************************************************************************

 **************************************************************************

                    xk=(  -1.00000,   0.02500,   0.00000  )

     zone border point and non-symmorphic group 
     symmetry decomposition not available

 **************************************************************************

 **************************************************************************

                    xk=(  -1.00000,   0.03750,   0.00000  )

     zone border point and non-symmorphic group 
     symmetry decomposition not available

 **************************************************************************

 **************************************************************************

                    xk=(  -1.00000,   0.05000,   0.00000  )

     zone border point and non-symmorphic group 
     symmetry decomposition not available

 **************************************************************************

 **************************************************************************

                    xk=(  -1.00000,   0.06250,   0.00000  )

     zone border point and non-symmorphic group 
     symmetry decomposition not available

 **************************************************************************

 **************************************************************************

                    xk=(  -1.00000,   0.07500,   0.00000  )

     zone border point and non-symmorphic group 
     symmetry decomposition not available

 **************************************************************************

 **************************************************************************

                    xk=(  -1.00000,   0.08750,   0.00000  )

     zone border point and non-symmorphic group 
     symmetry decomposition not available

 **************************************************************************

 **************************************************************************

                    xk=(  -1.00000,   0.10000,   0.00000  )

     zone border point and non-symmorphic group 
     symmetry decomposition not available

 **************************************************************************

 **************************************************************************

                    xk=(  -1.00000,   0.11250,   0.00000  )

     zone border point and non-symmorphic group 
     symmetry decomposition not available

 **************************************************************************

 **************************************************************************

                    xk=(  -1.00000,   0.12500,   0.00000  )

     zone border point and non-symmorphic group 
     symmetry decomposition not available

 **************************************************************************

 **************************************************************************

                    xk=(  -1.00000,   0.13750,   0.00000  )

     zone border point and non-symmorphic group 
     symmetry decomposition not available

 **************************************************************************

 **************************************************************************

                    xk=(  -1.00000,   0.15000,   0.00000  )

     zone border point and non-symmorphic group 
     symmetry decomposition not available

 **************************************************************************

 **************************************************************************

                    xk=(  -1.00000,   0.16250,   0.00000  )

     zone border point and non-symmorphic group 
     symmetry decomposition not available

 **************************************************************************

 **************************************************************************

                    xk=(  -1.00000,   0.17500,   0.00000  )

     zone border point and non-symmorphic group 
     symmetry decomposition not available

 **************************************************************************

 **************************************************************************

                    xk=(  -1.00000,   0.18750,   0.00000  )

     zone border point and non-symmorphic group 
     symmetry decomposition not available

 **************************************************************************

 **************************************************************************

                    xk=(  -1.00000,   0.20000,   0.00000  )

     zone border point and non-symmorphic group 
     symmetry decomposition not available

 **************************************************************************

 **************************************************************************

                    xk=(  -1.00000,   0.21250,   0.00000  )

     zone border point and non-symmorphic group 
     symmetry decomposition not available

 **************************************************************************

 **************************************************************************

                    xk=(  -1.00000,   0.22500,   0.00000  )

     zone border point and non-symmorphic group 
     symmetry decomposition not available

 **************************************************************************

 **************************************************************************

                    xk=(  -1.00000,   0.23750,   0.00000  )

     zone border point and non-symmorphic group 
     symmetry decomposition not available

 **************************************************************************

 **************************************************************************

                    xk=(  -1.00000,   0.25000,   0.00000  )

     zone border point and non-symmorphic group 
     symmetry decomposition not available

 **************************************************************************

 **************************************************************************

                    xk=(  -1.00000,   0.26250,   0.00000  )

     zone border point and non-symmorphic group 
     symmetry decomposition not available

 **************************************************************************

 **************************************************************************

                    xk=(  -1.00000,   0.27500,   0.00000  )

     zone border point and non-symmorphic group 
     symmetry decomposition not available

 **************************************************************************

 **************************************************************************

                    xk=(  -1.00000,   0.28750,   0.00000  )

     zone border point and non-symmorphic group 
     symmetry decomposition not available

 **************************************************************************

 **************************************************************************

                    xk=(  -1.00000,   0.30000,   0.00000  )

     zone border point and non-symmorphic group 
     symmetry decomposition not available

 **************************************************************************

 **************************************************************************

                    xk=(  -1.00000,   0.31250,   0.00000  )

     zone border point and non-symmorphic group 
     symmetry decomposition not available

 **************************************************************************

 **************************************************************************

                    xk=(  -1.00000,   0.32500,   0.00000  )

     zone border point and non-symmorphic group 
     symmetry decomposition not available

 **************************************************************************

 **************************************************************************

                    xk=(  -1.00000,   0.33750,   0.00000  )

     zone border point and non-symmorphic group 
     symmetry decomposition not available

 **************************************************************************

 **************************************************************************

                    xk=(  -1.00000,   0.35000,   0.00000  )

     zone border point and non-symmorphic group 
     symmetry decomposition not available

 **************************************************************************

 **************************************************************************

                    xk=(  -1.00000,   0.36250,   0.00000  )

     zone border point and non-symmorphic group 
     symmetry decomposition not available

 **************************************************************************

 **************************************************************************

                    xk=(  -1.00000,   0.37500,   0.00000  )

     zone border point and non-symmorphic group 
     symmetry decomposition not available

 **************************************************************************

 **************************************************************************

                    xk=(  -1.00000,   0.38750,   0.00000  )

     zone border point and non-symmorphic group 
     symmetry decomposition not available

 **************************************************************************

 **************************************************************************

                    xk=(  -1.00000,   0.40000,   0.00000  )

     zone border point and non-symmorphic group 
     symmetry decomposition not available

 **************************************************************************

 **************************************************************************

                    xk=(  -1.00000,   0.41250,   0.00000  )

     zone border point and non-symmorphic group 
     symmetry decomposition not available

 **************************************************************************

 **************************************************************************

                    xk=(  -1.00000,   0.42500,   0.00000  )

     zone border point and non-symmorphic group 
     symmetry decomposition not available

 **************************************************************************

 **************************************************************************

                    xk=(  -1.00000,   0.43750,   0.00000  )

     zone border point and non-symmorphic group 
     symmetry decomposition not available

 **************************************************************************

 **************************************************************************

                    xk=(  -1.00000,   0.45000,   0.00000  )

     zone border point and non-symmorphic group 
     symmetry decomposition not available

 **************************************************************************

 **************************************************************************

                    xk=(  -1.00000,   0.46250,   0.00000  )

     zone border point and non-symmorphic group 
     symmetry decomposition not available

 **************************************************************************

 **************************************************************************

                    xk=(  -1.00000,   0.47500,   0.00000  )

     zone border point and non-symmorphic group 
     symmetry decomposition not available

 **************************************************************************

 **************************************************************************

                    xk=(  -1.00000,   0.48750,   0.00000  )

     zone border point and non-symmorphic group 
     symmetry decomposition not available

 **************************************************************************

 **************************************************************************

                    xk=(  -1.00000,   0.50000,   0.00000  )

     zone border point and non-symmorphic group 
     symmetry decomposition not available

 **************************************************************************

 **************************************************************************

                    xk=(  -0.99375,   0.50625,   0.00000  )

     point group C_s (m)    
     there are  2 classes
     the character table:

       E     s    
A'     1.00  1.00
A''    1.00 -1.00

     the symmetry operations in each class and the name of the first element:

     E        1
                                                                 
     s        2
                                                                 

     Band symmetry, C_s (m)     point group:

     e(  1 -  1) =     -1.46628  eV     1   --> A'             
     e(  2 -  2) =     -1.40973  eV     1   --> A''            
     e(  3 -  3) =      2.33935  eV     1   --> A'             
     e(  4 -  4) =      2.38342  eV     1   --> A''            
     e(  5 -  5) =     10.45667  eV     1   --> A''            
     e(  6 -  6) =     10.51166  eV     1   --> A'             
     e(  7 -  7) =     11.21437  eV     1   --> A''            
     e(  8 -  8) =     11.25046  eV     1   --> A'             

 **************************************************************************

 **************************************************************************

                    xk=(  -0.98750,   0.51250,   0.00000  )

     Band symmetry, C_s (m)     point group:

     e(  1 -  1) =     -1.49396  eV     1   --> A'             
     e(  2 -  2) =     -1.38276  eV     1   --> A''            
     e(  3 -  3) =      2.31839  eV     1   --> A'             
     e(  4 -  4) =      2.40806  eV     1   --> A''            
     e(  5 -  5) =     10.39517  eV     1   --> A''            
     e(  6 -  6) =     10.52610  eV     1   --> A'             
     e(  7 -  7) =     11.23271  eV     1   --> A''            
     e(  8 -  8) =     11.28334  eV     1   --> A'             

 **************************************************************************

 **************************************************************************

                    xk=(  -0.98125,   0.51875,   0.00000  )

     Band symmetry, C_s (m)     point group:

     e(  1 -  1) =     -1.52095  eV     1   --> A'             
     e(  2 -  2) =     -1.35697  eV     1   --> A''            
     e(  3 -  3) =      2.29790  eV     1   --> A'             
     e(  4 -  4) =      2.43465  eV     1   --> A''            
     e(  5 -  5) =     10.31476  eV     1   --> A''            
     e(  6 -  6) =     10.53618  eV     1   --> A'             
     e(  7 -  7) =     11.27168  eV     1   --> A''            
     e(  8 -  8) =     11.32163  eV     1   --> A'             

 **************************************************************************

 **************************************************************************

                    xk=(  -0.97500,   0.52500,   0.00000  )

     Band symmetry, C_s (m)     point group:

     e(  1 -  1) =     -1.54722  eV     1   --> A'             
     e(  2 -  2) =     -1.33236  eV     1   --> A''            
     e(  3 -  3) =      2.27788  eV     1   --> A'             
     e(  4 -  4) =      2.46318  eV     1   --> A''            
     e(  5 -  5) =     10.22198  eV     1   --> A''            
     e(  6 -  6) =     10.54239  eV     1   --> A'             
     e(  7 -  7) =     11.32479  eV     1   --> A''            
     e(  8 -  8) =     11.36485  eV     1   --> A'             

 **************************************************************************

 **************************************************************************

                    xk=(  -0.96875,   0.53125,   0.00000  )

     Band symmetry, C_s (m)     point group:

     e(  1 -  1) =     -1.57279  eV     1   --> A'             
     e(  2 -  2) =     -1.30893  eV     1   --> A''            
     e(  3 -  3) =      2.25833  eV     1   --> A'             
     e(  4 -  4) =      2.49360  eV     1   --> A''            
     e(  5 -  5) =     10.12153  eV     1   --> A''            
     e(  6 -  6) =     10.54527  eV     1   --> A'             
     e(  7 -  7) =     11.38734  eV     1   --> A''            
     e(  8 -  8) =     11.41245  eV     1   --> A'             

 **************************************************************************

 **************************************************************************

                    xk=(  -0.96250,   0.53750,   0.00000  )

     Band symmetry, C_s (m)     point group:

     e(  1 -  1) =     -1.59765  eV     1   --> A'             
     e(  2 -  2) =     -1.28666  eV     1   --> A''            
     e(  3 -  3) =      2.23928  eV     1   --> A'             
     e(  4 -  4) =      2.52586  eV     1   --> A''            
     e(  5 -  5) =     10.01647  eV     1   --> A''            
     e(  6 -  6) =     10.54537  eV     1   --> A'             
     e(  7 -  7) =     11.45632  eV     1   --> A''            
     e(  8 -  8) =     11.46387  eV     1   --> A'             

 **************************************************************************

 **************************************************************************

                    xk=(  -0.95625,   0.54375,   0.00000  )

     Band symmetry, C_s (m)     point group:

     e(  1 -  1) =     -1.62180  eV     1   --> A'             
     e(  2 -  2) =     -1.26554  eV     1   --> A''            
     e(  3 -  3) =      2.22071  eV     1   --> A'             
     e(  4 -  4) =      2.55990  eV     1   --> A''            
     e(  5 -  5) =      9.90874  eV     1   --> A''            
     e(  6 -  6) =     10.54319  eV     1   --> A'             
     e(  7 -  7) =     11.51858  eV     1   --> A'             
     e(  8 -  8) =     11.52986  eV     1   --> A''            

 **************************************************************************

 **************************************************************************

                    xk=(  -0.95000,   0.55000,   0.00000  )

     Band symmetry, C_s (m)     point group:

     e(  1 -  1) =     -1.64524  eV     1   --> A'             
     e(  2 -  2) =     -1.24555  eV     1   --> A''            
     e(  3 -  3) =      2.20265  eV     1   --> A'             
     e(  4 -  4) =      2.59566  eV     1   --> A''            
     e(  5 -  5) =      9.79956  eV     1   --> A''            
     e(  6 -  6) =     10.53920  eV     1   --> A'             
     e(  7 -  7) =     11.57616  eV     1   --> A'             
     e(  8 -  8) =     11.60677  eV     1   --> A''            

 **************************************************************************

 **************************************************************************

                    xk=(  -0.94375,   0.55625,   0.00000  )

     Band symmetry, C_s (m)     point group:

     e(  1 -  1) =     -1.66797  eV     1   --> A'             
     e(  2 -  2) =     -1.22667  eV     1   --> A''            
     e(  3 -  3) =      2.18509  eV     1   --> A'             
     e(  4 -  4) =      2.63308  eV     1   --> A''            
     e(  5 -  5) =      9.68976  eV     1   --> A''            
     e(  6 -  6) =     10.53376  eV     1   --> A'             
     e(  7 -  7) =     11.63612  eV     1   --> A'             
     e(  8 -  8) =     11.68623  eV     1   --> A''            

 **************************************************************************

 **************************************************************************

                    xk=(  -0.93750,   0.56250,   0.00000  )

     Band symmetry, C_s (m)     point group:

     e(  1 -  1) =     -1.68999  eV     1   --> A'             
     e(  2 -  2) =     -1.20888  eV     1   --> A''            
     e(  3 -  3) =      2.16803  eV     1   --> A'             
     e(  4 -  4) =      2.67205  eV     1   --> A''            
     e(  5 -  5) =      9.57984  eV     1   --> A''            
     e(  6 -  6) =     10.52721  eV     1   --> A'             
     e(  7 -  7) =     11.69814  eV     1   --> A'             
     e(  8 -  8) =     11.76773  eV     1   --> A''            

 **************************************************************************

 **************************************************************************

                    xk=(  -0.93125,   0.56875,   0.00000  )

     Band symmetry, C_s (m)     point group:

     e(  1 -  1) =     -1.71129  eV     1   --> A'             
     e(  2 -  2) =     -1.19213  eV     1   --> A''            
     e(  3 -  3) =      2.15149  eV     1   --> A'             
     e(  4 -  4) =      2.71252  eV     1   --> A''            
     e(  5 -  5) =      9.47040  eV     1   --> A''            
     e(  6 -  6) =     10.51984  eV     1   --> A'             
     e(  7 -  7) =     11.76202  eV     1   --> A'             
     e(  8 -  8) =     11.85101  eV     1   --> A''            

 **************************************************************************

 **************************************************************************

                    xk=(  -0.92500,   0.57500,   0.00000  )

     Band symmetry, C_s (m)     point group:

     e(  1 -  1) =     -1.73188  eV     1   --> A'             
     e(  2 -  2) =     -1.17641  eV     1   --> A''            
     e(  3 -  3) =      2.13546  eV     1   --> A'             
     e(  4 -  4) =      2.75437  eV     1   --> A''            
     e(  5 -  5) =      9.36162  eV     1   --> A''            
     e(  6 -  6) =     10.51181  eV     1   --> A'             
     e(  7 -  7) =     11.82742  eV     1   --> A'             
     e(  8 -  8) =     11.93564  eV     1   --> A''            

 **************************************************************************

 **************************************************************************

                    xk=(  -0.91875,   0.58125,   0.00000  )

     Band symmetry, C_s (m)     point group:

     e(  1 -  1) =     -1.75176  eV     1   --> A'             
     e(  2 -  2) =     -1.16168  eV     1   --> A''            
     e(  3 -  3) =      2.11997  eV     1   --> A'             
     e(  4 -  4) =      2.79751  eV     1   --> A''            
     e(  5 -  5) =      9.25381  eV     1   --> A''            
     e(  6 -  6) =     10.50337  eV     1   --> A'             
     e(  7 -  7) =     11.89420  eV     1   --> A'             
     e(  8 -  8) =     12.02151  eV     1   --> A''            

 **************************************************************************

 **************************************************************************

                    xk=(  -0.91250,   0.58750,   0.00000  )

     Band symmetry, C_s (m)     point group:

     e(  1 -  1) =     -1.77091  eV     1   --> A'             
     e(  2 -  2) =     -1.14790  eV     1   --> A''            
     e(  3 -  3) =      2.10500  eV     1   --> A'             
     e(  4 -  4) =      2.84182  eV     1   --> A''            
     e(  5 -  5) =      9.14716  eV     1   --> A''            
     e(  6 -  6) =     10.49463  eV     1   --> A'             
     e(  7 -  7) =     11.96217  eV     1   --> A'             
     e(  8 -  8) =     12.10848  eV     1   --> A''            

 **************************************************************************

 **************************************************************************

                    xk=(  -0.90625,   0.59375,   0.00000  )

     Band symmetry, C_s (m)     point group:

     e(  1 -  1) =     -1.78935  eV     1   --> A'             
     e(  2 -  2) =     -1.13504  eV     1   --> A''            
     e(  3 -  3) =      2.09056  eV     1   --> A'             
     e(  4 -  4) =      2.88718  eV     1   --> A''            
     e(  5 -  5) =      9.04186  eV     1   --> A''            
     e(  6 -  6) =     10.48573  eV     1   --> A'             
     e(  7 -  7) =     12.03121  eV     1   --> A'             
     e(  8 -  8) =     12.19644  eV     1   --> A''            

 **************************************************************************

 **************************************************************************

                    xk=(  -0.90000,   0.60000,   0.00000  )

     Band symmetry, C_s (m)     point group:

     e(  1 -  1) =     -1.80708  eV     1   --> A'             
     e(  2 -  2) =     -1.12306  eV     1   --> A''            
     e(  3 -  3) =      2.07666  eV     1   --> A'             
     e(  4 -  4) =      2.93347  eV     1   --> A''            
     e(  5 -  5) =      8.93808  eV     1   --> A''            
     e(  6 -  6) =     10.47676  eV     1   --> A'             
     e(  7 -  7) =     12.10117  eV     1   --> A'             
     e(  8 -  8) =     12.28530  eV     1   --> A''            

 **************************************************************************

 **************************************************************************

                    xk=(  -0.89375,   0.60625,   0.00000  )

     Band symmetry, C_s (m)     point group:

     e(  1 -  1) =     -1.82408  eV     1   --> A'             
     e(  2 -  2) =     -1.11193  eV     1   --> A''            
     e(  3 -  3) =      2.06330  eV     1   --> A'             
     e(  4 -  4) =      2.98054  eV     1   --> A''            
     e(  5 -  5) =      8.83600  eV     1   --> A''            
     e(  6 -  6) =     10.46781  eV     1   --> A'             
     e(  7 -  7) =     12.17197  eV     1   --> A'             
     e(  8 -  8) =     12.37498  eV     1   --> A''            

 **************************************************************************

 **************************************************************************

                    xk=(  -0.88750,   0.61250,   0.00000  )

     Band symmetry, C_s (m)     point group:

     e(  1 -  1) =     -1.84036  eV     1   --> A'             
     e(  2 -  2) =     -1.10159  eV     1   --> A''            
     e(  3 -  3) =      2.05049  eV     1   --> A'             
     e(  4 -  4) =      3.02825  eV     1   --> A''            
     e(  5 -  5) =      8.73576  eV     1   --> A''            
     e(  6 -  6) =     10.45895  eV     1   --> A'             
     e(  7 -  7) =     12.24350  eV     1   --> A'             
     e(  8 -  8) =     12.46544  eV     1   --> A''            

 **************************************************************************

 **************************************************************************

                    xk=(  -0.88125,   0.61875,   0.00000  )

     Band symmetry, C_s (m)     point group:

     e(  1 -  1) =     -1.85593  eV     1   --> A'             
     e(  2 -  2) =     -1.09202  eV     1   --> A''            
     e(  3 -  3) =      2.03822  eV     1   --> A'             
     e(  4 -  4) =      3.07645  eV     1   --> A''            
     e(  5 -  5) =      8.63755  eV     1   --> A''            
     e(  6 -  6) =     10.45025  eV     1   --> A'             
     e(  7 -  7) =     12.31568  eV     1   --> A'             
     e(  8 -  8) =     12.55664  eV     1   --> A''            

 **************************************************************************

 **************************************************************************

                    xk=(  -0.87500,   0.62500,   0.00000  )

     Band symmetry, C_s (m)     point group:

     e(  1 -  1) =     -1.87077  eV     1   --> A'             
     e(  2 -  2) =     -1.08318  eV     1   --> A''            
     e(  3 -  3) =      2.02650  eV     1   --> A'             
     e(  4 -  4) =      3.12494  eV     1   --> A''            
     e(  5 -  5) =      8.54150  eV     1   --> A''            
     e(  6 -  6) =     10.44174  eV     1   --> A'             
     e(  7 -  7) =     12.38842  eV     1   --> A'             
     e(  8 -  8) =     12.64849  eV     1   --> A''            

 **************************************************************************

 **************************************************************************

                    xk=(  -0.86875,   0.63125,   0.00000  )

     Band symmetry, C_s (m)     point group:

     e(  1 -  1) =     -1.88490  eV     1   --> A'             
     e(  2 -  2) =     -1.07503  eV     1   --> A''            
     e(  3 -  3) =      2.01533  eV     1   --> A'             
     e(  4 -  4) =      3.17356  eV     1   --> A''            
     e(  5 -  5) =      8.44779  eV     1   --> A''            
     e(  6 -  6) =     10.43347  eV     1   --> A'             
     e(  7 -  7) =     12.46166  eV     1   --> A'             
     e(  8 -  8) =     12.74098  eV     1   --> A''            

 **************************************************************************

 **************************************************************************

                    xk=(  -0.86250,   0.63750,   0.00000  )

     Band symmetry, C_s (m)     point group:

     e(  1 -  1) =     -1.89830  eV     1   --> A'             
     e(  2 -  2) =     -1.06753  eV     1   --> A''            
     e(  3 -  3) =      2.00472  eV     1   --> A'             
     e(  4 -  4) =      3.22210  eV     1   --> A''            
     e(  5 -  5) =      8.35653  eV     1   --> A''            
     e(  6 -  6) =     10.42548  eV     1   --> A'             
     e(  7 -  7) =     12.53532  eV     1   --> A'             
     e(  8 -  8) =     12.83406  eV     1   --> A''            

 **************************************************************************

 **************************************************************************

                    xk=(  -0.85625,   0.64375,   0.00000  )

     Band symmetry, C_s (m)     point group:

     e(  1 -  1) =     -1.91099  eV     1   --> A'             
     e(  2 -  2) =     -1.06066  eV     1   --> A''            
     e(  3 -  3) =      1.99468  eV     1   --> A'             
     e(  4 -  4) =      3.27036  eV     1   --> A''            
     e(  5 -  5) =      8.26808  eV     1   --> A''            
     e(  6 -  6) =     10.41779  eV     1   --> A'             
     e(  7 -  7) =     12.60939  eV     1   --> A'             
     e(  8 -  8) =     12.92773  eV     1   --> A''            

 **************************************************************************

 **************************************************************************

                    xk=(  -0.85000,   0.65000,   0.00000  )

     Band symmetry, C_s (m)     point group:

     e(  1 -  1) =     -1.92295  eV     1   --> A'             
     e(  2 -  2) =     -1.05437  eV     1   --> A''            
     e(  3 -  3) =      1.98518  eV     1   --> A'             
     e(  4 -  4) =      3.31813  eV     1   --> A''            
     e(  5 -  5) =      8.18256  eV     1   --> A''            
     e(  6 -  6) =     10.41039  eV     1   --> A'             
     e(  7 -  7) =     12.68368  eV     1   --> A'             
     e(  8 -  8) =     13.02189  eV     1   --> A''            

 **************************************************************************

 **************************************************************************

                    xk=(  -0.84375,   0.65625,   0.00000  )

     Band symmetry, C_s (m)     point group:

     e(  1 -  1) =     -1.93418  eV     1   --> A'             
     e(  2 -  2) =     -1.04863  eV     1   --> A''            
     e(  3 -  3) =      1.97626  eV     1   --> A'             
     e(  4 -  4) =      3.36516  eV     1   --> A''            
     e(  5 -  5) =      8.10018  eV     1   --> A''            
     e(  6 -  6) =     10.40340  eV     1   --> A'             
     e(  7 -  7) =     12.75819  eV     1   --> A'             
     e(  8 -  8) =     13.11657  eV     1   --> A''            

 **************************************************************************

 **************************************************************************

                    xk=(  -0.83750,   0.66250,   0.00000  )

     Band symmetry, C_s (m)     point group:

     e(  1 -  1) =     -1.94470  eV     1   --> A'             
     e(  2 -  2) =     -1.04341  eV     1   --> A''            
     e(  3 -  3) =      1.96790  eV     1   --> A'             
     e(  4 -  4) =      3.41119  eV     1   --> A''            
     e(  5 -  5) =      8.02113  eV     1   --> A''            
     e(  6 -  6) =     10.39679  eV     1   --> A'             
     e(  7 -  7) =     12.83281  eV     1   --> A'             
     e(  8 -  8) =     13.21169  eV     1   --> A''            

 **************************************************************************

 **************************************************************************

                    xk=(  -0.83125,   0.66875,   0.00000  )

     Band symmetry, C_s (m)     point group:

     e(  1 -  1) =     -1.95449  eV     1   --> A'             
     e(  2 -  2) =     -1.03868  eV     1   --> A''            
     e(  3 -  3) =      1.96011  eV     1   --> A'             
     e(  4 -  4) =      3.45597  eV     1   --> A''            
     e(  5 -  5) =      7.94576  eV     1   --> A''            
     e(  6 -  6) =     10.39058  eV     1   --> A'             
     e(  7 -  7) =     12.90746  eV     1   --> A'             
     e(  8 -  8) =     13.30725  eV     1   --> A''            

 **************************************************************************

 **************************************************************************

                    xk=(  -0.82500,   0.67500,   0.00000  )

     Band symmetry, C_s (m)     point group:

     e(  1 -  1) =     -1.96356  eV     1   --> A'             
     e(  2 -  2) =     -1.03441  eV     1   --> A''            
     e(  3 -  3) =      1.95288  eV     1   --> A'             
     e(  4 -  4) =      3.49922  eV     1   --> A''            
     e(  5 -  5) =      7.87427  eV     1   --> A''            
     e(  6 -  6) =     10.38477  eV     1   --> A'             
     e(  7 -  7) =     12.98204  eV     1   --> A'             
     e(  8 -  8) =     13.40319  eV     1   --> A''            

 **************************************************************************

 **************************************************************************

                    xk=(  -0.81875,   0.68125,   0.00000  )

     Band symmetry, C_s (m)     point group:

     e(  1 -  1) =     -1.97190  eV     1   --> A'             
     e(  2 -  2) =     -1.03058  eV     1   --> A''            
     e(  3 -  3) =      1.94623  eV     1   --> A'             
     e(  4 -  4) =      3.54066  eV     1   --> A''            
     e(  5 -  5) =      7.80693  eV     1   --> A''            
     e(  6 -  6) =     10.37941  eV     1   --> A'             
     e(  7 -  7) =     13.05645  eV     1   --> A'             
     e(  8 -  8) =     13.49954  eV     1   --> A''            

 **************************************************************************

 **************************************************************************

                    xk=(  -0.81250,   0.68750,   0.00000  )

     Band symmetry, C_s (m)     point group:

     e(  1 -  1) =     -1.97952  eV     1   --> A'             
     e(  2 -  2) =     -1.02717  eV     1   --> A''            
     e(  3 -  3) =      1.94016  eV     1   --> A'             
     e(  4 -  4) =      3.57994  eV     1   --> A''            
     e(  5 -  5) =      7.74405  eV     1   --> A''            
     e(  6 -  6) =     10.37446  eV     1   --> A'             
     e(  7 -  7) =     13.13044  eV     1   --> A'             
     e(  8 -  8) =     13.59608  eV     1   --> A''            

 **************************************************************************

 **************************************************************************

                    xk=(  -0.80625,   0.69375,   0.00000  )

     Band symmetry, C_s (m)     point group:

     e(  1 -  1) =     -1.98641  eV     1   --> A'             
     e(  2 -  2) =     -1.02414  eV     1   --> A''            
     e(  3 -  3) =      1.93465  eV     1   --> A'             
     e(  4 -  4) =      3.61679  eV     1   --> A''            
     e(  5 -  5) =      7.68591  eV     1   --> A''            
     e(  6 -  6) =     10.36996  eV     1   --> A'             
     e(  7 -  7) =     13.20383  eV     1   --> A'             
     e(  8 -  8) =     13.69283  eV     1   --> A''            

 **************************************************************************

 **************************************************************************

                    xk=(  -0.80000,   0.70000,   0.00000  )

     Band symmetry, C_s (m)     point group:

     e(  1 -  1) =     -1.99258  eV     1   --> A'             
     e(  2 -  2) =     -1.02149  eV     1   --> A''            
     e(  3 -  3) =      1.92973  eV     1   --> A'             
     e(  4 -  4) =      3.65087  eV     1   --> A''            
     e(  5 -  5) =      7.63282  eV     1   --> A''            
     e(  6 -  6) =     10.36592  eV     1   --> A'             
     e(  7 -  7) =     13.27635  eV     1   --> A'             
     e(  8 -  8) =     13.78967  eV     1   --> A''            

 **************************************************************************

 **************************************************************************

                    xk=(  -0.79375,   0.70625,   0.00000  )

     Band symmetry, C_s (m)     point group:

     e(  1 -  1) =     -1.99802  eV     1   --> A'             
     e(  2 -  2) =     -1.01920  eV     1   --> A''            
     e(  3 -  3) =      1.92538  eV     1   --> A'             
     e(  4 -  4) =      3.68189  eV     1   --> A''            
     e(  5 -  5) =      7.58509  eV     1   --> A''            
     e(  6 -  6) =     10.36234  eV     1   --> A'             
     e(  7 -  7) =     13.34758  eV     1   --> A'             
     e(  8 -  8) =     13.88649  eV     1   --> A''            

 **************************************************************************

 **************************************************************************

                    xk=(  -0.78750,   0.71250,   0.00000  )

     Band symmetry, C_s (m)     point group:

     e(  1 -  1) =     -2.00274  eV     1   --> A'             
     e(  2 -  2) =     -1.01724  eV     1   --> A''            
     e(  3 -  3) =      1.92161  eV     1   --> A'             
     e(  4 -  4) =      3.70951  eV     1   --> A''            
     e(  5 -  5) =      7.54298  eV     1   --> A''            
     e(  6 -  6) =     10.35922  eV     1   --> A'             
     e(  7 -  7) =     13.41690  eV     1   --> A'             
     e(  8 -  8) =     13.98305  eV     1   --> A''            

 **************************************************************************

 **************************************************************************

                    xk=(  -0.78125,   0.71875,   0.00000  )

     Band symmetry, C_s (m)     point group:

     e(  1 -  1) =     -2.00673  eV     1   --> A'             
     e(  2 -  2) =     -1.01561  eV     1   --> A''            
     e(  3 -  3) =      1.91841  eV     1   --> A'             
     e(  4 -  4) =      3.73344  eV     1   --> A''            
     e(  5 -  5) =      7.50670  eV     1   --> A''            
     e(  6 -  6) =     10.35657  eV     1   --> A'             
     e(  7 -  7) =     13.48340  eV     1   --> A'             
     e(  8 -  8) =     14.07903  eV     1   --> A''            

 **************************************************************************

 **************************************************************************

                    xk=(  -0.77500,   0.72500,   0.00000  )

     Band symmetry, C_s (m)     point group:

     e(  1 -  1) =     -2.01000  eV     1   --> A'             
     e(  2 -  2) =     -1.01428  eV     1   --> A''            
     e(  3 -  3) =      1.91580  eV     1   --> A'             
     e(  4 -  4) =      3.75344  eV     1   --> A''            
     e(  5 -  5) =      7.47670  eV     1   --> A''            
     e(  6 -  6) =     10.35439  eV     1   --> A'             
     e(  7 -  7) =     13.54569  eV     1   --> A'             
     e(  8 -  8) =     14.17378  eV     1   --> A''            

 **************************************************************************

 **************************************************************************

                    xk=(  -0.76875,   0.73125,   0.00000  )

     Band symmetry, C_s (m)     point group:

     e(  1 -  1) =     -2.01254  eV     1   --> A'             
     e(  2 -  2) =     -1.01327  eV     1   --> A''            
     e(  3 -  3) =      1.91376  eV     1   --> A'             
     e(  4 -  4) =      3.76926  eV     1   --> A''            
     e(  5 -  5) =      7.45311  eV     1   --> A''            
     e(  6 -  6) =     10.35270  eV     1   --> A'             
     e(  7 -  7) =     13.60150  eV     1   --> A'             
     e(  8 -  8) =     14.26599  eV     1   --> A''            

 **************************************************************************

 **************************************************************************

                    xk=(  -0.76250,   0.73750,   0.00000  )

     Band symmetry, C_s (m)     point group:

     e(  1 -  1) =     -2.01436  eV     1   --> A'             
     e(  2 -  2) =     -1.01255  eV     1   --> A''            
     e(  3 -  3) =      1.91231  eV     1   --> A'             
     e(  4 -  4) =      3.78071  eV     1   --> A''            
     e(  5 -  5) =      7.43611  eV     1   --> A''            
     e(  6 -  6) =     10.35149  eV     1   --> A'             
     e(  7 -  7) =     13.64734  eV     1   --> A'             
     e(  8 -  8) =     14.28193  eV     1   --> A'             

 **************************************************************************

 **************************************************************************

                    xk=(  -0.75625,   0.74375,   0.00000  )

     Band symmetry, C_s (m)     point group:

     e(  1 -  1) =     -2.01544  eV     1   --> A'             
     e(  2 -  2) =     -1.01211  eV     1   --> A''            
     e(  3 -  3) =      1.91144  eV     1   --> A'             
     e(  4 -  4) =      3.78764  eV     1   --> A''            
     e(  5 -  5) =      7.42586  eV     1   --> A''            
     e(  6 -  6) =     10.35076  eV     1   --> A'             
     e(  7 -  7) =     13.67837  eV     1   --> A'             
     e(  8 -  8) =     14.25109  eV     1   --> A'             

 **************************************************************************

 **************************************************************************

                    xk=(  -0.75000,   0.75000,   0.00000  )

     point group C_2v (mm2) 
     there are  4 classes
     the character table:

       E     C2    s_v   s_v' 
A_1    1.00  1.00  1.00  1.00
A_2    1.00  1.00 -1.00 -1.00
B_1    1.00 -1.00  1.00 -1.00
B_2    1.00 -1.00 -1.00  1.00

     the symmetry operations in each class and the name of the first element:

     E        1
                                                                 
     C2       2
                                                                 
     s_v      4
                                                                 
     s_v'     3
                                                                 

     Band symmetry, C_2v (mm2)  point group:

     e(  1 -  1) =     -2.01581  eV     1   --> A_1  D_1  S_1  
     e(  2 -  2) =     -1.01197  eV     1   --> B_1  D_3  S_3  
     e(  3 -  3) =      1.91115  eV     1   --> A_1  D_1  S_1  
     e(  4 -  4) =      3.78996  eV     1   --> A_2  D_2  S_2  
     e(  5 -  5) =      7.42244  eV     1   --> B_1  D_3  S_3  
     e(  6 -  6) =     10.35052  eV     1   --> A_1  D_1  S_1  
     e(  7 -  7) =     13.68948  eV     1   --> B_2  D_4  S_4  
     e(  8 -  8) =     14.24003  eV     1   --> A_1  D_1  S_1  

 **************************************************************************

 **************************************************************************

                    xk=(  -0.73125,   0.73125,   0.00000  )

     Band symmetry, C_2v (mm2)  point group:

     e(  1 -  1) =     -2.10478  eV     1   --> A_1  D_1  S_1  
     e(  2 -  2) =     -0.92044  eV     1   --> B_1  D_3  S_3  
     e(  3 -  3) =      1.85469  eV     1   --> A_1  D_1  S_1  
     e(  4 -  4) =      3.85414  eV     1   --> A_2  D_2  S_2  
     e(  5 -  5) =      7.49680  eV     1   --> B_1  D_3  S_3  
     e(  6 -  6) =     10.73061  eV     1   --> A_1  D_1  S_1  
     e(  7 -  7) =     13.45908  eV     1   --> B_2  D_4  S_4  
     e(  8 -  8) =     14.00494  eV     1   --> A_1  D_1  S_1  

 **************************************************************************

 **************************************************************************

                    xk=(  -0.71250,   0.71250,   0.00000  )

     Band symmetry, C_2v (mm2)  point group:

     e(  1 -  1) =     -2.20371  eV     1   --> A_1  D_1  S_1  
     e(  2 -  2) =     -0.82239  eV     1   --> B_1  D_3  S_3  
     e(  3 -  3) =      1.81679  eV     1   --> A_1  D_1  S_1  
     e(  4 -  4) =      3.92220  eV     1   --> A_2  D_2  S_2  
     e(  5 -  5) =      7.57567  eV     1   --> B_1  D_3  S_3  
     e(  6 -  6) =     11.11449  eV     1   --> A_1  D_1  S_1  
     e(  7 -  7) =     13.23254  eV     1   --> B_2  D_4  S_4  
     e(  8 -  8) =     13.77882  eV     1   --> A_1  D_1  S_1  

 **************************************************************************

 **************************************************************************

                    xk=(  -0.69375,   0.69375,   0.00000  )

     Band symmetry, C_2v (mm2)  point group:

     e(  1 -  1) =     -2.31190  eV     1   --> A_1  D_1  S_1  
     e(  2 -  2) =     -0.71783  eV     1   --> B_1  D_3  S_3  
     e(  3 -  3) =      1.79727  eV     1   --> A_1  D_1  S_1  
     e(  4 -  4) =      3.99396  eV     1   --> A_2  D_2  S_2  
     e(  5 -  5) =      7.65880  eV     1   --> B_1  D_3  S_3  
     e(  6 -  6) =     11.49771  eV     1   --> A_1  D_1  S_1  
     e(  7 -  7) =     13.01020  eV     1   --> B_2  D_4  S_4  
     e(  8 -  8) =     13.56541  eV     1   --> A_1  D_1  S_1  

 **************************************************************************

 **************************************************************************

                    xk=(  -0.67500,   0.67500,   0.00000  )

     Band symmetry, C_2v (mm2)  point group:

     e(  1 -  1) =     -2.42840  eV     1   --> A_1  D_1  S_1  
     e(  2 -  2) =     -0.60682  eV     1   --> B_1  D_3  S_3  
     e(  3 -  3) =      1.79553  eV     1   --> A_1  D_1  S_1  
     e(  4 -  4) =      4.06920  eV     1   --> A_2  D_2  S_2  
     e(  5 -  5) =      7.74590  eV     1   --> B_1  D_3  S_3  
     e(  6 -  6) =     11.87017  eV     1   --> A_1  D_1  S_1  
     e(  7 -  7) =     12.79235  eV     1   --> B_2  D_4  S_4  
     e(  8 -  8) =     13.37376  eV     1   --> A_1  D_1  S_1  

 **************************************************************************

 **************************************************************************

                    xk=(  -0.65625,   0.65625,   0.00000  )

     Band symmetry, C_2v (mm2)  point group:

     e(  1 -  1) =     -2.55208  eV     1   --> A_1  D_1  S_1  
     e(  2 -  2) =     -0.48936  eV     1   --> B_1  D_3  S_3  
     e(  3 -  3) =      1.81077  eV     1   --> A_1  D_1  S_1  
     e(  4 -  4) =      4.14771  eV     1   --> A_2  D_2  S_2  
     e(  5 -  5) =      7.83669  eV     1   --> B_1  D_3  S_3  
     e(  6 -  6) =     12.20315  eV     1   --> A_1  D_1  S_1  
     e(  7 -  7) =     12.57923  eV     1   --> B_2  D_4  S_4  
     e(  8 -  8) =     13.23226  eV     1   --> A_1  D_1  S_1  

 **************************************************************************

 **************************************************************************

                    xk=(  -0.63750,   0.63750,   0.00000  )

     Band symmetry, C_2v (mm2)  point group:

     e(  1 -  1) =     -2.68169  eV     1   --> A_1  D_1  S_1  
     e(  2 -  2) =     -0.36549  eV     1   --> B_1  D_3  S_3  
     e(  3 -  3) =      1.84200  eV     1   --> A_1  D_1  S_1  
     e(  4 -  4) =      4.22924  eV     1   --> A_2  D_2  S_2  
     e(  5 -  5) =      7.93080  eV     1   --> B_1  D_3  S_3  
     e(  6 -  6) =     12.37105  eV     1   --> B_2  D_4  S_4  
     e(  7 -  7) =     12.40955  eV     1   --> A_1  D_1  S_1  
     e(  8 -  8) =     13.22693  eV     1   --> A_1  D_1  S_1  

 **************************************************************************

 **************************************************************************

                    xk=(  -0.61875,   0.61875,   0.00000  )

     Band symmetry, C_2v (mm2)  point group:

     e(  1 -  1) =     -2.81598  eV     1   --> A_1  D_1  S_1  
     e(  2 -  2) =     -0.23523  eV     1   --> B_1  D_3  S_3  
     e(  3 -  3) =      1.88814  eV     1   --> A_1  D_1  S_1  
[...]

 **************************************************************************

                    xk=(  -0.12500,   0.12500,   0.12500  )

     Band symmetry, C_3v (3m)   point group:

     e(  1 -  1) =     -5.54468  eV     1   --> A_1  L_1       
     e(  2 -  2) =      4.61903  eV     1   --> A_1  L_1       
     e(  3 -  4) =      5.92989  eV     2   --> E    L_3       
     e(  5 -  5) =      8.72114  eV     1   --> A_1  L_1       
     e(  6 -  7) =      9.20500  eV     2   --> E    L_3       
     e(  8 -  8) =     10.93445  eV     1   --> A_1  L_1       

 **************************************************************************

 **************************************************************************

                    xk=(  -0.13750,   0.13750,   0.13750  )

     Band symmetry, C_3v (3m)   point group:

     e(  1 -  1) =     -5.50210  eV     1   --> A_1  L_1       
     e(  2 -  2) =      4.38612  eV     1   --> A_1  L_1       
     e(  3 -  4) =      5.88212  eV     2   --> E    L_3       
     e(  5 -  5) =      8.67892  eV     1   --> A_1  L_1       
     e(  6 -  7) =      9.27325  eV     2   --> E    L_3       
     e(  8 -  8) =     11.15428  eV     1   --> A_1  L_1       

 **************************************************************************

 **************************************************************************

                    xk=(  -0.15000,   0.15000,   0.15000  )

     Band symmetry, C_3v (3m)   point group:

     e(  1 -  1) =     -5.45559  eV     1   --> A_1  L_1       
     e(  2 -  2) =      4.15101  eV     1   --> A_1  L_1       
     e(  3 -  4) =      5.83348  eV     2   --> E    L_3       
     e(  5 -  5) =      8.63386  eV     1   --> A_1  L_1       
     e(  6 -  7) =      9.34106  eV     2   --> E    L_3       
     e(  8 -  8) =     11.37720  eV     1   --> A_1  L_1       

 **************************************************************************

 **************************************************************************

                    xk=(  -0.16250,   0.16250,   0.16250  )

     Band symmetry, C_3v (3m)   point group:

     e(  1 -  1) =     -5.40520  eV     1   --> A_1  L_1       
     e(  2 -  2) =      3.91489  eV     1   --> A_1  L_1       
     e(  3 -  4) =      5.78445  eV     2   --> E    L_3       
     e(  5 -  5) =      8.58680  eV     1   --> A_1  L_1       
     e(  6 -  7) =      9.40705  eV     2   --> E    L_3       
     e(  8 -  8) =     11.60176  eV     1   --> A_1  L_1       

 **************************************************************************

 **************************************************************************

                    xk=(  -0.17500,   0.17500,   0.17500  )

     Band symmetry, C_3v (3m)   point group:

     e(  1 -  1) =     -5.35098  eV     1   --> A_1  L_1       
     e(  2 -  2) =      3.67854  eV     1   --> A_1  L_1       
     e(  3 -  4) =      5.73533  eV     2   --> E    L_3       
     e(  5 -  5) =      8.53848  eV     1   --> A_1  L_1       
     e(  6 -  7) =      9.46989  eV     2   --> E    L_3       
     e(  8 -  8) =     11.82697  eV     1   --> A_1  L_1       

 **************************************************************************

 **************************************************************************

                    xk=(  -0.18750,   0.18750,   0.18750  )

     Band symmetry, C_3v (3m)   point group:

     e(  1 -  1) =     -5.29297  eV     1   --> A_1  L_1       
     e(  2 -  2) =      3.44266  eV     1   --> A_1  L_1       
     e(  3 -  4) =      5.68668  eV     2   --> E    L_3       
     e(  5 -  5) =      8.48946  eV     1   --> A_1  L_1       
     e(  6 -  7) =      9.52840  eV     2   --> E    L_3       
     e(  8 -  8) =     12.05191  eV     1   --> A_1  L_1       

 **************************************************************************

 **************************************************************************

                    xk=(  -0.20000,   0.20000,   0.20000  )

     Band symmetry, C_3v (3m)   point group:

     e(  1 -  1) =     -5.23124  eV     1   --> A_1  L_1       
     e(  2 -  2) =      3.20786  eV     1   --> A_1  L_1       
     e(  3 -  4) =      5.63870  eV     2   --> E    L_3       
     e(  5 -  5) =      8.44026  eV     1   --> A_1  L_1       
     e(  6 -  7) =      9.58149  eV     2   --> E    L_3       
     e(  8 -  8) =     12.27585  eV     1   --> A_1  L_1       

 **************************************************************************

 **************************************************************************

                    xk=(  -0.21250,   0.21250,   0.21250  )

     Band symmetry, C_3v (3m)   point group:

     e(  1 -  1) =     -5.16588  eV     1   --> A_1  L_1       
     e(  2 -  2) =      2.97461  eV     1   --> A_1  L_1       
     e(  3 -  4) =      5.59161  eV     2   --> E    L_3       
     e(  5 -  5) =      8.39130  eV     1   --> A_1  L_1       
     e(  6 -  7) =      9.62809  eV     2   --> E    L_3       
     e(  8 -  8) =     12.49794  eV     1   --> A_1  L_1       

 **************************************************************************

 **************************************************************************

                    xk=(  -0.22500,   0.22500,   0.22500  )

     Band symmetry, C_3v (3m)   point group:

     e(  1 -  1) =     -5.09695  eV     1   --> A_1  L_1       
     e(  2 -  2) =      2.74340  eV     1   --> A_1  L_1       
     e(  3 -  4) =      5.54569  eV     2   --> E    L_3       
     e(  5 -  5) =      8.34297  eV     1   --> A_1  L_1       
     e(  6 -  7) =      9.66761  eV     2   --> E    L_3       
     e(  8 -  8) =     12.71736  eV     1   --> A_1  L_1       

 **************************************************************************

 **************************************************************************

                    xk=(  -0.23750,   0.23750,   0.23750  )

     Band symmetry, C_3v (3m)   point group:

     e(  1 -  1) =     -5.02456  eV     1   --> A_1  L_1       
     e(  2 -  2) =      2.51461  eV     1   --> A_1  L_1       
     e(  3 -  4) =      5.50110  eV     2   --> E    L_3       
     e(  5 -  5) =      8.29550  eV     1   --> A_1  L_1       
     e(  6 -  7) =      9.69959  eV     2   --> E    L_3       
     e(  8 -  8) =     12.93288  eV     1   --> A_1  L_1       

 **************************************************************************

 **************************************************************************

                    xk=(  -0.25000,   0.25000,   0.25000  )

     Band symmetry, C_3v (3m)   point group:

     e(  1 -  1) =     -4.94882  eV     1   --> A_1  L_1       
     e(  2 -  2) =      2.28863  eV     1   --> A_1  L_1       
     e(  3 -  4) =      5.45802  eV     2   --> E    L_3       
     e(  5 -  5) =      8.24919  eV     1   --> A_1  L_1       
     e(  6 -  7) =      9.72394  eV     2   --> E    L_3       
     e(  8 -  8) =     13.14293  eV     1   --> A_1  L_1       

 **************************************************************************

 **************************************************************************

                    xk=(  -0.26250,   0.26250,   0.26250  )

     Band symmetry, C_3v (3m)   point group:

     e(  1 -  1) =     -4.86987  eV     1   --> A_1  L_1       
     e(  2 -  2) =      2.06574  eV     1   --> A_1  L_1       
     e(  3 -  4) =      5.41656  eV     2   --> E    L_3       
     e(  5 -  5) =      8.20427  eV     1   --> A_1  L_1       
     e(  6 -  7) =      9.74080  eV     2   --> E    L_3       
     e(  8 -  8) =     13.34511  eV     1   --> A_1  L_1       

 **************************************************************************

 **************************************************************************

                    xk=(  -0.27500,   0.27500,   0.27500  )

     Band symmetry, C_3v (3m)   point group:

     e(  1 -  1) =     -4.78786  eV     1   --> A_1  L_1       
     e(  2 -  2) =      1.84642  eV     1   --> A_1  L_1       
     e(  3 -  4) =      5.37684  eV     2   --> E    L_3       
     e(  5 -  5) =      8.16093  eV     1   --> A_1  L_1       
     e(  6 -  7) =      9.75062  eV     2   --> E    L_3       
     e(  8 -  8) =     13.53583  eV     1   --> A_1  L_1       

 **************************************************************************

 **************************************************************************

                    xk=(  -0.28750,   0.28750,   0.28750  )

     Band symmetry, C_3v (3m)   point group:

     e(  1 -  1) =     -4.70299  eV     1   --> A_1  L_1       
     e(  2 -  2) =      1.63096  eV     1   --> A_1  L_1       
     e(  3 -  4) =      5.33896  eV     2   --> E    L_3       
     e(  5 -  5) =      8.11933  eV     1   --> A_1  L_1       
     e(  6 -  7) =      9.75402  eV     2   --> E    L_3       
     e(  8 -  8) =     13.69965  eV     1   -->   ?

 **************************************************************************

 **************************************************************************

                    xk=(  -0.30000,   0.30000,   0.30000  )

     Band symmetry, C_3v (3m)   point group:

     e(  1 -  1) =     -4.61548  eV     1   --> A_1  L_1       
     e(  2 -  2) =      1.41972  eV     1   --> A_1  L_1       
     e(  3 -  4) =      5.30299  eV     2   --> E    L_3       
     e(  5 -  5) =      8.07960  eV     1   --> A_1  L_1       
     e(  6 -  7) =      9.75179  eV     2   --> E    L_3       
     e(  8 -  8) =     13.82203  eV     1   -->   ?

 **************************************************************************

 **************************************************************************

                    xk=(  -0.31250,   0.31250,   0.31250  )

     Band symmetry, C_3v (3m)   point group:

     e(  1 -  1) =     -4.52559  eV     1   --> A_1  L_1       
     e(  2 -  2) =      1.21310  eV     1   --> A_1  L_1       
     e(  3 -  4) =      5.26901  eV     2   --> E    L_3       
     e(  5 -  5) =      8.04187  eV     1   --> A_1  L_1       
     e(  6 -  7) =      9.74481  eV     2   --> E    L_3       
     e(  8 -  8) =     13.95801  eV     1   -->   ?

 **************************************************************************

 **************************************************************************

                    xk=(  -0.32500,   0.32500,   0.32500  )

     Band symmetry, C_3v (3m)   point group:

     e(  1 -  1) =     -4.43363  eV     1   --> A_1  L_1       
     e(  2 -  2) =      1.01154  eV     1   --> A_1  L_1       
     e(  3 -  4) =      5.23707  eV     2   --> E    L_3       
     e(  5 -  5) =      8.00626  eV     1   --> A_1  L_1       
     e(  6 -  7) =      9.73398  eV     2   --> E    L_3       
     e(  8 -  8) =     14.05879  eV     1   --> A_1  L_1       

 **************************************************************************

 **************************************************************************

                    xk=(  -0.33750,   0.33750,   0.33750  )

     Band symmetry, C_3v (3m)   point group:

     e(  1 -  1) =     -4.34001  eV     1   --> A_1  L_1       
     e(  2 -  2) =      0.81551  eV     1   --> A_1  L_1       
     e(  3 -  4) =      5.20716  eV     2   --> E    L_3       
     e(  5 -  5) =      7.97277  eV     1   --> A_1  L_1       
     e(  6 -  7) =      9.72012  eV     2   --> E    L_3       
     e(  8 -  8) =     14.10464  eV     1   --> A_1  L_1       

 **************************************************************************

 **************************************************************************

                    xk=(  -0.35000,   0.35000,   0.35000  )

     Band symmetry, C_3v (3m)   point group:

     e(  1 -  1) =     -4.24520  eV     1   --> A_1  L_1       
     e(  2 -  2) =      0.62558  eV     1   --> A_1  L_1       
     e(  3 -  4) =      5.17942  eV     2   --> E    L_3       
     e(  5 -  5) =      7.94157  eV     1   --> A_1  L_1       
     e(  6 -  7) =      9.70420  eV     2   --> E    L_3       
     e(  8 -  8) =     14.12248  eV     1   --> A_1  L_1       

 **************************************************************************

 **************************************************************************

                    xk=(  -0.36250,   0.36250,   0.36250  )

     Band symmetry, C_3v (3m)   point group:

     e(  1 -  1) =     -4.14978  eV     1   --> A_1  L_1       
     e(  2 -  2) =      0.44241  eV     1   --> A_1  L_1       
     e(  3 -  4) =      5.15383  eV     2   --> E    L_3       
     e(  5 -  5) =      7.91269  eV     1   --> A_1  L_1       
     e(  6 -  7) =      9.68695  eV     2   --> E    L_3       
     e(  8 -  8) =     14.12117  eV     1   --> A_1  L_1       

 **************************************************************************

 **************************************************************************

                    xk=(  -0.37500,   0.37500,   0.37500  )

     Band symmetry, C_3v (3m)   point group:

     e(  1 -  1) =     -4.05446  eV     1   --> A_1  L_1       
     e(  2 -  2) =      0.26677  eV     1   --> A_1  L_1       
     e(  3 -  4) =      5.13038  eV     2   --> E    L_3       
     e(  5 -  5) =      7.88617  eV     1   --> A_1  L_1       
     e(  6 -  7) =      9.66898  eV     2   --> E    L_3       
     e(  8 -  8) =     14.10816  eV     1   --> A_1  L_1       

 **************************************************************************

 **************************************************************************

                    xk=(  -0.38750,   0.38750,   0.38750  )

     Band symmetry, C_3v (3m)   point group:

     e(  1 -  1) =     -3.96011  eV     1   --> A_1  L_1       
     e(  2 -  2) =      0.09960  eV     1   --> A_1  L_1       
     e(  3 -  4) =      5.10916  eV     2   --> E    L_3       
     e(  5 -  5) =      7.86208  eV     1   --> A_1  L_1       
     e(  6 -  7) =      9.65110  eV     2   --> E    L_3       
     e(  8 -  8) =     14.08875  eV     1   --> A_1  L_1       

 **************************************************************************

 **************************************************************************

                    xk=(  -0.40000,   0.40000,   0.40000  )

     Band symmetry, C_3v (3m)   point group:

     e(  1 -  1) =     -3.86783  eV     1   --> A_1  L_1       
     e(  2 -  2) =     -0.05797  eV     1   --> A_1  L_1       
     e(  3 -  4) =      5.09014  eV     2   --> E    L_3       
     e(  5 -  5) =      7.84044  eV     1   --> A_1  L_1       
     e(  6 -  7) =      9.63376  eV     2   --> E    L_3       
     e(  8 -  8) =     14.06649  eV     1   --> A_1  L_1       

 **************************************************************************

 **************************************************************************

                    xk=(  -0.41250,   0.41250,   0.41250  )

     Band symmetry, C_3v (3m)   point group:

     e(  1 -  1) =     -3.77894  eV     1   --> A_1  L_1       
     e(  2 -  2) =     -0.20457  eV     1   --> A_1  L_1       
     e(  3 -  4) =      5.07335  eV     2   --> E    L_3       
     e(  5 -  5) =      7.82134  eV     1   --> A_1  L_1       
     e(  6 -  7) =      9.61744  eV     2   --> E    L_3       
     e(  8 -  8) =     14.04372  eV     1   --> A_1  L_1       

 **************************************************************************

 **************************************************************************

                    xk=(  -0.42500,   0.42500,   0.42500  )

     Band symmetry, C_3v (3m)   point group:

     e(  1 -  1) =     -3.69504  eV     1   --> A_1  L_1       
     e(  2 -  2) =     -0.33854  eV     1   --> A_1  L_1       
     e(  3 -  4) =      5.05877  eV     2   --> E    L_3       
     e(  5 -  5) =      7.80470  eV     1   --> A_1  L_1       
     e(  6 -  7) =      9.60255  eV     2   --> E    L_3       
     e(  8 -  8) =     14.02197  eV     1   --> A_1  L_1       

 **************************************************************************

 **************************************************************************

                    xk=(  -0.43750,   0.43750,   0.43750  )

     Band symmetry, C_3v (3m)   point group:

     e(  1 -  1) =     -3.61805  eV     1   --> A_1  L_1       
     e(  2 -  2) =     -0.45796  eV     1   --> A_1  L_1       
     e(  3 -  4) =      5.04644  eV     2   --> E    L_3       
     e(  5 -  5) =      7.79058  eV     1   --> A_1  L_1       
     e(  6 -  7) =      9.58941  eV     2   --> E    L_3       
     e(  8 -  8) =     14.00232  eV     1   --> A_1  L_1       

 **************************************************************************

 **************************************************************************

                    xk=(  -0.45000,   0.45000,   0.45000  )

     Band symmetry, C_3v (3m)   point group:

     e(  1 -  1) =     -3.55016  eV     1   --> A_1  L_1       
     e(  2 -  2) =     -0.56060  eV     1   --> A_1  L_1       
     e(  3 -  4) =      5.03634  eV     2   --> E    L_3       
     e(  5 -  5) =      7.77900  eV     1   --> A_1  L_1       
     e(  6 -  7) =      9.57829  eV     2   --> E    L_3       
     e(  8 -  8) =     13.98547  eV     1   --> A_1  L_1       

 **************************************************************************

 **************************************************************************

                    xk=(  -0.46250,   0.46250,   0.46250  )

     Band symmetry, C_3v (3m)   point group:

     e(  1 -  1) =     -3.49377  eV     1   --> A_1  L_1       
     e(  2 -  2) =     -0.64403  eV     1   --> A_1  L_1       
     e(  3 -  4) =      5.02849  eV     2   --> E    L_3       
     e(  5 -  5) =      7.76999  eV     1   --> A_1  L_1       
     e(  6 -  7) =      9.56945  eV     2   --> E    L_3       
     e(  8 -  8) =     13.97194  eV     1   --> A_1  L_1       

 **************************************************************************

 **************************************************************************

                    xk=(  -0.47500,   0.47500,   0.47500  )

     Band symmetry, C_3v (3m)   point group:

     e(  1 -  1) =     -3.45126  eV     1   --> A_1  L_1       
     e(  2 -  2) =     -0.70585  eV     1   --> A_1  L_1       
     e(  3 -  4) =      5.02288  eV     2   --> E    L_3       
     e(  5 -  5) =      7.76355  eV     1   --> A_1  L_1       
     e(  6 -  7) =      9.56300  eV     2   --> E    L_3       
     e(  8 -  8) =     13.96210  eV     1   --> A_1  L_1       

 **************************************************************************

 **************************************************************************

                    xk=(  -0.48750,   0.48750,   0.48750  )

     Band symmetry, C_3v (3m)   point group:

     e(  1 -  1) =     -3.42478  eV     1   --> A_1  L_1       
     e(  2 -  2) =     -0.74394  eV     1   --> A_1  L_1       
     e(  3 -  4) =      5.01951  eV     2   --> E    L_3       
     e(  5 -  5) =      7.75968  eV     1   --> A_1  L_1       
     e(  6 -  7) =      9.55909  eV     2   --> E    L_3       
     e(  8 -  8) =     13.95610  eV     1   --> A_1  L_1       

 **************************************************************************

 **************************************************************************

                    xk=(  -0.50000,   0.50000,   0.50000  )

     zone border point and non-symmorphic group 
     symmetry decomposition not available

 **************************************************************************

     BANDS        :      1.82s CPU      2.03s WALL


   This run was terminated on:  15: 8:50  31Oct2025            

=------------------------------------------------------------------------------=
   JOB DONE.
=------------------------------------------------------------------------------=
